<LesHouchesEvents version="3.0">
<header>
<!--
#*********************************************************************
#                                                                    *
#                        MadGraph5_aMC@NLO                           *
#                                                                    *
#                           Going Beyond                             *
#                                                                    *
#                   http://madgraph.hep.uiuc.edu                     *
#                   http://madgraph.phys.ucl.ac.be                   *
#                   http://amcatnlo.cern.ch                          *
#                                                                    *
#                     The MadGraph5_aMC@NLO team                     *
#                                                                    *
#....................................................................*
#                                                                    *
# This file contains all the information necessary to reproduce      *
# the events generated:                                              *
#                                                                    *
# 1. software version                                                *
# 2. proc_card          : code generation info including model       *
# 3. param_card         : model primary parameters in the LH format  *
# 4. run_card           : running parameters (collider and cuts)     *
# 5. pythia_card        : present only if pythia has been run        *
# 6. pgs_card           : present only if pgs has been run           *
# 7. delphes_cards      : present only if delphes has been run       *
#                                                                    *
#                                                                    *
#*********************************************************************
-->
<MGVersion>
#2.6.5
</MGVersion>
<MG5ProcCard>
<![CDATA[
#************************************************************
#*                     MadGraph5_aMC@NLO                    *
#*                                                          *
#*                *                       *                 *
#*                  *        * *        *                   *
#*                    * * * * 5 * * * *                     *
#*                  *        * *        *                   *
#*                *                       *                 *
#*                                                          *
#*                                                          *
#*         VERSION 2.6.5                 2018-02-03         *
#*                                                          *
#*    The MadGraph5_aMC@NLO Development Team - Find us at   *
#*    https://server06.fynu.ucl.ac.be/projects/madgraph     *
#*                                                          *
#************************************************************
#*                                                          *
#*               Command File for MadGraph5_aMC@NLO         *
#*                                                          *
#*     run as ./bin/mg5_aMC  filename                       *
#*                                                          *
#************************************************************
set default_unset_couplings 99
set group_subprocesses Auto
set ignore_six_quark_processes False
set loop_optimized_output True
set loop_color_flows False
set gauge unitary
set complex_mass_scheme False
set max_npoint_for_channel 0
import model SMEFTatNLO-LO
define p = g u c d s u~ c~ d~ s~
define j = g u c d s u~ c~ d~ s~
define l+ = e+ mu+
define l- = e- mu-
define vl = ve vm vt
define vl~ = ve~ vm~ vt~
define p = 21 2 4 1 3 -2 -4 -1 -3 5 -5 # pass to 5 flavors
define j = p
define p = g u c d s u~ c~ d~ s~ b b~
define j = g u c d s u~ c~ d~ s~ b b~
generate  p p > t  t~ NP=2 QCD=2 QED=0 @0
add process  p p > t  t~ j NP=2 QCD=3 QED=0 @1
output ttJets_LO_SMEFT -f -nojpeg
]]>
</MG5ProcCard>
<MGProcCard>
<![CDATA[
#*********************************************************************
#                        MadGraph/MadEvent                           *
#                   http://madgraph.hep.uiuc.edu                     *
#                                                                    *
#                          proc_card.dat                             *
#*********************************************************************
#                                                                    *
#            This Files is generated by MADGRAPH 5                   *
#                                                                    *
# WARNING: This Files is generated for MADEVENT (compatibility issue)*
#          This files is NOT a valid MG4 proc_card.dat               *
#          Running this in MG4 will NEVER reproduce the result of MG5*
#                                                                    *
#*********************************************************************
#*********************************************************************
# Process(es) requested : mg2 input                                  *
#*********************************************************************
# Begin PROCESS # This is TAG. Do not modify this line
p p > t t~ @0           #Process
# Be carefull the coupling are here in MG5 convention
NP=2
QCD=2
QED=0
          
end_coup           # End the couplings input

done               # this tells MG there are no more procs
# End PROCESS  # This is TAG. Do not modify this line
#*********************************************************************
# Model information                                                  *
#*********************************************************************
# Begin MODEL  # This is TAG. Do not modify this line
SMEFTatNLO-LO
# End   MODEL  # This is TAG. Do not modify this line
#*********************************************************************
# Start multiparticle definitions                                    *
#*********************************************************************
# Begin MULTIPARTICLES # This is TAG. Do not modify this line

# End  MULTIPARTICLES # This is TAG. Do not modify this line
]]>
</MGProcCard>
<MGRunCard>
<![CDATA[
#*********************************************************************
#                       MadGraph5_aMC@NLO                            *
#                                                                    *
#                     run_card.dat MadEvent                          *
#                                                                    *
#  This file is used to set the parameters of the run.               *
#                                                                    *
#  Some notation/conventions:                                        *
#                                                                    *
#   Lines starting with a '# ' are info or comments                  *
#                                                                    *
#   mind the format:   value    = variable     ! comment             *
#                                                                    *
#   To display more options, you can type the command:               *
#      update full_run_card                                          *
#*********************************************************************
#
#*******************                                                 
# Running parameters
#*******************                                                 
#                                                                    
#*********************************************************************
# Tag name for the run (one word)                                    *
#*********************************************************************
  tag_1	= run_tag ! name of the run 
#*********************************************************************
# Number of events and rnd seed                                      *
# Warning: Do not generate more than 1M events in a single run       *
# If you want to run Pythia, avoid more than 50k events in a run.    *
#*********************************************************************
  5000	= nevents ! Number of unweighted events requested 
 2345670 = iseed ! rnd seed (0=assigned automatically=default))
#*********************************************************************
# Collider type and energy                                           *
# lpp: 0=No PDF, 1=proton, -1=antiproton, 2=photon from proton,      *
#                                         3=photon from electron     *
#*********************************************************************
  1	= lpp1 ! beam 1 type 
  1	= lpp2 ! beam 2 type
  6500.0	= ebeam1 ! beam 1 total energy in GeV
  6500.0	= ebeam2 ! beam 2 total energy in GeV
#*********************************************************************
# Beam polarization from -100 (left-handed) to 100 (right-handed)    *
#*********************************************************************
     0.0     = polbeam1 ! beam polarization for beam 1
     0.0     = polbeam2 ! beam polarization for beam 2

#*********************************************************************
# PDF CHOICE: this automatically fixes also alpha_s and its evol.    *
#*********************************************************************
  lhapdf	= pdlabel ! PDF set                                     
  325300	= lhaid ! if pdlabel=lhapdf, this is the lhapdf number
# To see heavy ion options: type "update ion_pdf"
#*********************************************************************
# Renormalization and factorization scales                           *
#*********************************************************************
  False	= fixed_ren_scale ! if .true. use fixed ren scale
  False	= fixed_fac_scale ! if .true. use fixed fac scale
  91.188	= scale ! fixed ren scale
  91.188	= dsqrt_q2fact1 ! fixed fact scale for pdf1
  91.188	= dsqrt_q2fact2 ! fixed fact scale for pdf2
  -1	= dynamical_scale_choice ! Choose one of the preselected dynamical choices
  1.0	= scalefact ! scale factor for event-by-event scales
#*********************************************************************
# Type and output format
#*********************************************************************
  True	= gridpack !True = setting up the grid pack
  -1.0	= time_of_flight ! threshold (in mm) below which the invariant livetime is not written (-1 means not written)
  3.0	= lhe_version ! Change the way clustering information pass to shower.        
  True	= clusinfo ! include clustering tag in output
  sum	= event_norm ! average/sum. Normalization of the weight in the LHEF

#*********************************************************************
# Matching parameter (MLM only)
#*********************************************************************
  1	= ickkw ! 0 no matching, 1 MLM
  1.0	= alpsfact ! scale factor for QCD emission vx
  False	= chcluster ! cluster only according to channel diag
  5	= asrwgtflavor ! highest quark flavor for a_s reweight
  True	= auto_ptj_mjj ! Automatic setting of ptj and mjj if xqcut >0
                                   ! (turn off for VBF and single top processes) 
  10.0	= xqcut ! minimum kt jet measure between partons
#*********************************************************************
#
#*********************************************************************
# handling of the helicities:
#  0: sum over all helicities
#  1: importance sampling over helicities
#*********************************************************************
  0	= nhel ! using helicities importance sampling or not.
#*********************************************************************
# Generation bias, check the wiki page below for more information:   *
#  'cp3.irmp.ucl.ac.be/projects/madgraph/wiki/LOEventGenerationBias' *
#*********************************************************************
  None	= bias_module ! Bias type of bias, [None, ptj_bias, -custom_folder-]
  {}	= bias_parameters ! Specifies the parameters of the module.
#
#*******************************                                                 
# Parton level cuts definition *
#*******************************                                     
#                                                                    
#
#*********************************************************************
# BW cutoff (M+/-bwcutoff*Gamma) ! Define on/off-shell for "$" and decay  
#*********************************************************************
  15.0	= bwcutoff ! (M+/-bwcutoff*Gamma)
#*********************************************************************
# Apply pt/E/eta/dr/mij/kt_durham cuts on decay products or not
# (note that etmiss/ptll/ptheavy/ht/sorted cuts always apply)
#*********************************************************************
  False	= cut_decays ! Cut decay products 
#*********************************************************************
# Standard Cuts                                                      *
#*********************************************************************
# Minimum and maximum pt's (for max, -1 means no cut)                *
#*********************************************************************
  20.0	= ptj ! minimum pt for the jets 
  0.0	= ptb ! minimum pt for the b 
  0.0	= pta ! minimum pt for the photons 
  0.0	= ptl ! minimum pt for the charged leptons 
  0.0	= misset ! minimum missing Et (sum of neutrino's momenta)
  -1.0	= ptjmax ! maximum pt for the jets
  -1.0	= ptbmax ! maximum pt for the b
  -1.0	= ptamax ! maximum pt for the photons
  -1.0	= ptlmax ! maximum pt for the charged leptons
  -1.0	= missetmax ! maximum missing Et (sum of neutrino's momenta)
  {}	= pt_min_pdg ! pt cut for other particles (use pdg code). Applied on particle and anti-particle
  {}	= pt_max_pdg ! pt cut for other particles (syntax e.g. {6: 100, 25: 50}) 
#*********************************************************************
# Minimum and maximum E's (in the center of mass frame)              *
#*********************************************************************
  0.0	= ej ! minimum E for the jets 
  0.0	= eb ! minimum E for the b 
  0.0	= ea ! minimum E for the photons 
  0.0	= el ! minimum E for the charged leptons 
  -1.0	= ejmax ! maximum E for the jets
  -1.0	= ebmax ! maximum E for the b
  -1.0	= eamax ! maximum E for the photons
  -1.0	= elmax ! maximum E for the charged leptons
  {}	= e_min_pdg ! E cut for other particles (use pdg code). Applied on particle and anti-particle
  {}	= e_max_pdg ! E cut for other particles (syntax e.g. {6: 100, 25: 50}) 
#*********************************************************************
# Maximum and minimum absolute rapidity (for max, -1 means no cut)   *
#*********************************************************************
  -1.0	= etaj ! max rap for the jets 
  -1.0	= etab ! max rap for the b
  -1.0	= etaa ! max rap for the photons 
  -1.0	= etal ! max rap for the charged leptons 
  0.0	= etajmin ! min rap for the jets
  0.0	= etabmin ! min rap for the b
  0.0	= etaamin ! min rap for the photons
  0.0	= etalmin ! main rap for the charged leptons
  {}	= eta_min_pdg ! rap cut for other particles (use pdg code). Applied on particle and anti-particle
  {}	= eta_max_pdg ! rap cut for other particles (syntax e.g. {6: 2.5, 23: 5})
#*********************************************************************
# Minimum and maximum DeltaR distance                                *
#*********************************************************************
  0.0	= drjj ! min distance between jets 
  0.0	= drbb ! min distance between b's 
  0.0	= drll ! min distance between leptons 
  0.0	= draa ! min distance between gammas 
  0.0	= drbj ! min distance between b and jet 
  0.0	= draj ! min distance between gamma and jet 
  0.0	= drjl ! min distance between jet and lepton 
  0.0	= drab ! min distance between gamma and b 
  0.0	= drbl ! min distance between b and lepton 
  0.0	= dral ! min distance between gamma and lepton 
  -1.0	= drjjmax ! max distance between jets
  -1.0	= drbbmax ! max distance between b's
  -1.0	= drllmax ! max distance between leptons
  -1.0	= draamax ! max distance between gammas
  -1.0	= drbjmax ! max distance between b and jet
  -1.0	= drajmax ! max distance between gamma and jet
  -1.0	= drjlmax ! max distance between jet and lepton
  -1.0	= drabmax ! max distance between gamma and b
  -1.0	= drblmax ! max distance between b and lepton
  -1.0	= dralmax ! maxdistance between gamma and lepton
#*********************************************************************
# Minimum and maximum invariant mass for pairs                       *
# WARNING: for four lepton final state mmll cut require to have      *
#          different lepton masses for each flavor!                  *           
#*********************************************************************
  0.0	= mmjj ! min invariant mass of a jet pair 
  0.0	= mmbb ! min invariant mass of a b pair 
  0.0	= mmaa ! min invariant mass of gamma gamma pair
  30.0	= mmll ! min invariant mass of l+l- (same flavour) lepton pair
  -1.0	= mmjjmax ! max invariant mass of a jet pair
  -1.0	= mmbbmax ! max invariant mass of a b pair
  -1.0	= mmaamax ! max invariant mass of gamma gamma pair
  -1.0	= mmllmax ! max invariant mass of l+l- (same flavour) lepton pair
  {}	= mxx_min_pdg ! min invariant mass of a pair of particles X/X~ (e.g. {6:250})
  {'default': False}	= mxx_only_part_antipart ! if True the invariant mass is applied only 
                       ! to pairs of particle/antiparticle and not to pairs of the same pdg codes.  
#*********************************************************************
# Minimum and maximum invariant mass for all letpons                 *
#*********************************************************************
  0.0	= mmnl ! min invariant mass for all letpons (l+- and vl) 
  -1.0	= mmnlmax ! max invariant mass for all letpons (l+- and vl) 
#*********************************************************************
# Minimum and maximum pt for 4-momenta sum of leptons                *
#*********************************************************************
  0.0	= ptllmin ! Minimum pt for 4-momenta sum of leptons(l and vl)
  -1.0	= ptllmax ! Maximum pt for 4-momenta sum of leptons(l and vl)
#*********************************************************************
# Inclusive cuts                                                     *
#*********************************************************************
  0.0	= ptheavy ! minimum pt for at least one heavy final state
  0.0	= xptj ! minimum pt for at least one jet  
  0.0	= xptb ! minimum pt for at least one b 
  0.0	= xpta ! minimum pt for at least one photon 
  0.0	= xptl ! minimum pt for at least one charged lepton 
#*********************************************************************
# Control the pt's of the jets sorted by pt                          *
#*********************************************************************
  0.0	= ptj1min ! minimum pt for the leading jet in pt
  0.0	= ptj2min ! minimum pt for the second jet in pt
  0.0	= ptj3min ! minimum pt for the third jet in pt
  0.0	= ptj4min ! minimum pt for the fourth jet in pt
  -1.0	= ptj1max ! maximum pt for the leading jet in pt 
  -1.0	= ptj2max ! maximum pt for the second jet in pt
  -1.0	= ptj3max ! maximum pt for the third jet in pt
  -1.0	= ptj4max ! maximum pt for the fourth jet in pt
  0	= cutuse ! reject event if fails any (0) / all (1) jet pt cuts
#*********************************************************************
# Control the pt's of leptons sorted by pt                           *
#*********************************************************************
  0.0	= ptl1min ! minimum pt for the leading lepton in pt
  0.0	= ptl2min ! minimum pt for the second lepton in pt
  0.0	= ptl3min ! minimum pt for the third lepton in pt
  0.0	= ptl4min ! minimum pt for the fourth lepton in pt
  -1.0	= ptl1max ! maximum pt for the leading lepton in pt 
  -1.0	= ptl2max ! maximum pt for the second lepton in pt
  -1.0	= ptl3max ! maximum pt for the third lepton in pt
  -1.0	= ptl4max ! maximum pt for the fourth lepton in pt
#*********************************************************************
# Control the Ht(k)=Sum of k leading jets                            *
#*********************************************************************
  0.0	= htjmin ! minimum jet HT=Sum(jet pt)
  -1.0	= htjmax ! maximum jet HT=Sum(jet pt)
  0.0	= ihtmin !inclusive Ht for all partons (including b)
  -1.0	= ihtmax !inclusive Ht for all partons (including b)
  0.0	= ht2min ! minimum Ht for the two leading jets
  0.0	= ht3min ! minimum Ht for the three leading jets
  0.0	= ht4min ! minimum Ht for the four leading jets
  -1.0	= ht2max ! maximum Ht for the two leading jets
  -1.0	= ht3max ! maximum Ht for the three leading jets
  -1.0	= ht4max ! maximum Ht for the four leading jets
#***********************************************************************
# Photon-isolation cuts, according to hep-ph/9801442                   *
# When ptgmin=0, all the other parameters are ignored                  *
# When ptgmin>0, pta and draj are not going to be used                 *
#***********************************************************************
  0.0	= ptgmin ! Min photon transverse momentum
  0.4	= r0gamma ! Radius of isolation code
  1.0	= xn ! n parameter of eq.(3.4) in hep-ph/9801442
  1.0	= epsgamma ! epsilon_gamma parameter of eq.(3.4) in hep-ph/9801442
  True	= isoem ! isolate photons from EM energy (photons and leptons)
#*********************************************************************
# WBF cuts                                                           *
#*********************************************************************
  0.0	= xetamin ! minimum rapidity for two jets in the WBF case  
  0.0	= deltaeta ! minimum rapidity for two jets in the WBF case 
#***********************************************************************
# Turn on either the ktdurham or ptlund cut to activate                *
# CKKW(L) merging with Pythia8 [arXiv:1410.3012, arXiv:1109.4829]      *
#***********************************************************************
  -1.0	= ktdurham 
  0.4	= dparameter 
  -1.0	= ptlund 
  1, 2, 3, 4, 5, 6, 21	= pdgs_for_merging_cut ! PDGs for two cuts above   
#*********************************************************************
# maximal pdg code for quark to be considered as a light jet         *
# (otherwise b cuts are applied)                                     *
#*********************************************************************
  5	= maxjetflavor ! Maximum jet pdg code
#*********************************************************************
#
#*********************************************************************
# Store info for systematics studies                                 *
# WARNING: Do not use for interference type of computation           *
#*********************************************************************
  True	= use_syst ! Enable systematics studies
#
  None	= systematics_program ! none, systematics [python], SysCalc [depreceted, C++]
['--mur=0.5,1,2', '--muf=0.5,1,2', '--pdf=errorset'] = systematics_arguments ! see: https://cp3.irmp.ucl.ac.be/projects/madgraph/wiki/Systematics#Systematicspythonmodule
#**************************************
# Parameter below of the systematics study
#  will be used by SysCalc (if installed)
#**************************************
#
0.5 1 2 = sys_scalefact  # factorization/renormalization scale factor
None = sys_alpsfact  # lpha_s emission scale factors
auto = sys_matchscale # variation of merging scale
# PDF sets and number of members (0 or none for all members).
errorset = sys_pdf # list of pdf sets. (errorset not valid for syscalc)
# MSTW2008nlo68cl.LHgrid 1  = sys_pdf
#
]]>
</MGRunCard>
<slha>
######################################################################
## PARAM_CARD AUTOMATICALY GENERATED BY MG5                       ####
######################################################################
###################################
## INFORMATION FOR DIM6
###################################
BLOCK DIM6 # 
      1 1.000000e+03 # lambda
      2 7.573950e-01 # cpdc
      3 6.461460e-01 # cpwb
      4 2.509460e-01 # cdp
      5 1.351650e-01 # cp
      6 4.571050e-01 # cwww
      7 3.734650e-01 # cg
      8 5.888800e-02 # cpg
      9 1.511300e-01 # cpw
      10 4.594190e-01 # cpbb
###################################
## INFORMATION FOR DIM62F
###################################
BLOCK DIM62F # 
      1 5.717830e-01 # cpl1
      2 7.403700e-01 # cpl2
      3 3.627500e-01 # cpl3
      4 7.167140e-01 # c3pl1
      5 4.828770e-01 # c3pl2
      6 6.702700e-02 # c3pl3
      7 5.026510e-01 # cpe
      8 2.890170e-01 # cpmu
      9 2.272290e-01 # cpta
      10 5.611200e-01 # cpqmi
      11 9.550030e-01 # cpq3i
      12 8.601340e-01 # cpq3
      13 8.129800e-02 # cpqm
      14 9.439940e-01 # cpu
      15 5.493600e-02 # cpt
      16 3.830320e-01 # cpd
      19 9.856160e-01 # ctp
      22 1.601190e-01 # ctz
      23 4.395630e-01 # ctw
      24 7.000000e-01 # ctg
###################################
## INFORMATION FOR DIM64F
###################################
BLOCK DIM64F # 
      1 9.000000e+00 # cqq83
      2 7.000000e+00 # cqq81
      3 9.500000e+00 # cqu8
      4 7.000000e+00 # ctq8
      6 1.200000e+01 # cqd8
      7 9.000000e+00 # ctu8
      8 1.240000e+01 # ctd8
      10 4.100000e+00 # cqq13
      11 4.200000e+00 # cqq11
      12 5.500000e+00 # cqu1
      13 4.400000e+00 # ctq1
      14 7.000000e+00 # cqd1
      16 5.400000e+00 # ctu1
      17 7.000000e+00 # ctd1
      19 9.016670e-01 # cqq8
      20 7.213620e-01 # cqq1
      21 5.412590e-01 # cqt1
      23 9.557010e-01 # ctt1
      25 5.513810e-01 # cqt8
###################################
## INFORMATION FOR DIM64F2L
###################################
BLOCK DIM64F2L # 
      1 5.561560e-01 # cqlm1
      2 7.427670e-01 # cqlm2
      3 1.768400e-01 # cql31
      4 4.711390e-01 # cql32
      5 2.848720e-01 # cqe1
      6 1.651090e-01 # cqe2
      7 4.442370e-01 # ctl1
      8 9.030600e-02 # ctl2
      9 3.331180e-01 # cte1
      10 2.955370e-01 # cte2
      13 5.830660e-01 # cqlm3
      14 1.026250e-01 # cql33
      15 2.236710e-01 # cqe3
      16 2.333750e-01 # ctl3
      17 5.983780e-01 # cte3
      19 9.608160e-01 # ctls3
      20 6.126880e-01 # ctlt3
      21 7.003320e-01 # cbls3
###################################
## INFORMATION FOR DIM64F4L
###################################
BLOCK DIM64F4L # 
      1 5.600930e-01 # cll1111
      2 2.672160e-01 # cll2222
      3 5.098470e-01 # cll3333
      4 1.704900e-02 # cll1122
      5 3.745970e-01 # cll1133
      6 5.648600e-01 # cll2233
      7 9.354350e-01 # cll1221
      8 9.492320e-01 # cll1331
      9 1.990830e-01 # cll2332
###################################
## INFORMATION FOR LOOP
###################################
BLOCK LOOP # 
      1 9.118800e+01 # mu_r
###################################
## INFORMATION FOR MASS
###################################
BLOCK MASS # 
      6 1.725000e+02 # mt
      23 9.118760e+01 # mz
      24 7.982440e+01 # mw
      25 1.250000e+02 # mh
      1 0.000000e+00 # d : 0.0
      2 0.000000e+00 # u : 0.0
      3 0.000000e+00 # s : 0.0
      4 0.000000e+00 # c : 0.0
      5 0.000000e+00 # b : 0.0
      11 0.000000e+00 # e- : 0.0
      12 0.000000e+00 # ve : 0.0
      13 0.000000e+00 # mu- : 0.0
      14 0.000000e+00 # vm : 0.0
      15 0.000000e+00 # ta- : 0.0
      16 0.000000e+00 # vt : 0.0
      21 0.000000e+00 # g : 0.0
      22 0.000000e+00 # a : 0.0
      9000002 9.118760e+01 # ghz : mz
      9000003 7.982440e+01 # ghwp : mw
      9000004 7.982440e+01 # ghwm : mw
###################################
## INFORMATION FOR RENOR
###################################
BLOCK RENOR # 
      1 9.118000e+01 # mueft
###################################
## INFORMATION FOR SMINPUTS
###################################
BLOCK SMINPUTS # 
      2 1.166370e-05 # gf
      3 1.184000e-01 # as
###################################
## INFORMATION FOR YUKAWA
###################################
BLOCK YUKAWA # 
      6 1.725000e+02 # ymt
###################################
## INFORMATION FOR DECAY
###################################
BLOCK QNUMBERS 9000001 #  gha
      1 0 # 3 times electric charge
      2 1 # number of spin states (2s+1)
      3 1 # colour rep (1: singlet, 3: triplet, 8: octet)
      4 1 # particle/antiparticle distinction (0=own anti)
###################################
## INFORMATION FOR QNUMBERS 9000002
###################################
BLOCK QNUMBERS 9000002 #  ghz
      1 0 # 3 times electric charge
      2 1 # number of spin states (2s+1)
      3 1 # colour rep (1: singlet, 3: triplet, 8: octet)
      4 1 # particle/antiparticle distinction (0=own anti)
###################################
## INFORMATION FOR QNUMBERS 9000003
###################################
BLOCK QNUMBERS 9000003 #  ghwp
      1 3 # 3 times electric charge
      2 1 # number of spin states (2s+1)
      3 1 # colour rep (1: singlet, 3: triplet, 8: octet)
      4 1 # particle/antiparticle distinction (0=own anti)
###################################
## INFORMATION FOR QNUMBERS 9000004
###################################
BLOCK QNUMBERS 9000004 #  ghwm
      1 -3 # 3 times electric charge
      2 1 # number of spin states (2s+1)
      3 1 # colour rep (1: singlet, 3: triplet, 8: octet)
      4 1 # particle/antiparticle distinction (0=own anti)
###################################
## INFORMATION FOR QNUMBERS 9000005
###################################
BLOCK QNUMBERS 9000005 #  ghg
      1 0 # 3 times electric charge
      2 1 # number of spin states (2s+1)
      3 8 # colour rep (1: singlet, 3: triplet, 8: octet)
      4 1 # particle/antiparticle distinction (0=own anti)
#
#*************************
#      Decay widths      *
#*************************
#
#      PDG        Width
DECAY  1   0.000000e+00
#
#      PDG        Width
DECAY  2   0.000000e+00
#
#      PDG        Width
DECAY  3   0.000000e+00
#
#      PDG        Width
DECAY  4   0.000000e+00
#
#      PDG        Width
DECAY  5   0.000000e+00
#
#      PDG        Width
DECAY  6   1.736800e+00
#  BR             NDA  ID1    ID2   ...
   1.000000e+00   2    5  24 # 1.7368
#
#      PDG        Width
DECAY  11   0.000000e+00
#
#      PDG        Width
DECAY  12   0.000000e+00
#
#      PDG        Width
DECAY  13   0.000000e+00
#
#      PDG        Width
DECAY  14   0.000000e+00
#
#      PDG        Width
DECAY  15   0.000000e+00
#
#      PDG        Width
DECAY  16   0.000000e+00
#
#      PDG        Width
DECAY  21   0.000000e+00
#
#      PDG        Width
DECAY  22   0.000000e+00
#
#      PDG        Width
DECAY  23   2.416023e+00
#
#      PDG        Width
DECAY  24   2.163410e+00
#  BR             NDA  ID1    ID2   ...
   3.401805e-01   2    -1  2 # 0.735949895505
   3.401805e-01   2    -3  4 # 0.735949895505
   1.102935e-01   2    -11  12 # 0.238610060835
   1.072890e-01   2    -13  14 # 0.23211009549
   1.020565e-01   2    -15  16 # 0.220790052665
#
#      PDG        Width
DECAY  25   4.088000e-03
#
#      PDG        Width
DECAY  9000002   2.416023e+00
#
#      PDG        Width
DECAY  9000003   2.002950e+00
#
#      PDG        Width
DECAY  9000004   2.002950e+00
</slha>
<initrwgt>
<weightgroup name='mg_reweighting' weight_name_strategy='includeIdInWeightName'>
<weight id='reference_point'></weight>
<weight id='EFTrwgt0_ctG_-0.754_cQq83_2.978_cQq81_11.175_cQu8_-0.722_cQd8_-22.551_ctq8_11.076_ctu8_-15.131_ctd8_20.128_cQq13_0.321_cQq11_-6.675_cQu1_-3.516_cQd1_6.151_ctq1_5.402_ctu1_-8.742_ctd1_5.367'>set param_card dim62f 24 -0.754 # orig: 0.7
set param_card dim64f 1 2.978 # orig: 9.0
set param_card dim64f 2 11.175 # orig: 7.0
set param_card dim64f 3 -0.722 # orig: 9.5
set param_card dim64f 4 11.076 # orig: 7.0
set param_card dim64f 6 -22.551 # orig: 12.0
set param_card dim64f 7 -15.131 # orig: 9.0
set param_card dim64f 8 20.128 # orig: 12.4
set param_card dim64f 10 0.321 # orig: 4.1
set param_card dim64f 11 -6.675 # orig: 4.2
set param_card dim64f 12 -3.516 # orig: 5.5
set param_card dim64f 13 5.402 # orig: 4.4
set param_card dim64f 14 6.151 # orig: 7.0
set param_card dim64f 16 -8.742 # orig: 5.4
set param_card dim64f 17 5.367 # orig: 7.0
</weight>
<weight id='EFTrwgt1_ctG_-1.195_cQq83_-15.761_cQq81_-4.235_cQu8_-15.499_cQd8_-10.228_ctq8_-0.966_ctu8_-17.272_ctd8_-16.58_cQq13_-4.893_cQq11_4.278_cQu1_-0.839_cQd1_-4.333_ctq1_2.613_ctu1_-1.417_ctd1_-2.816'>set param_card dim62f 24 -1.195 # orig: 0.7
set param_card dim64f 1 -15.761 # orig: 9.0
set param_card dim64f 2 -4.235 # orig: 7.0
set param_card dim64f 3 -15.499 # orig: 9.5
set param_card dim64f 4 -0.966 # orig: 7.0
set param_card dim64f 6 -10.228 # orig: 12.0
set param_card dim64f 7 -17.272 # orig: 9.0
set param_card dim64f 8 -16.58 # orig: 12.4
set param_card dim64f 10 -4.893 # orig: 4.1
set param_card dim64f 11 4.278 # orig: 4.2
set param_card dim64f 12 -0.839 # orig: 5.5
set param_card dim64f 13 2.613 # orig: 4.4
set param_card dim64f 14 -4.333 # orig: 7.0
set param_card dim64f 16 -1.417 # orig: 5.4
set param_card dim64f 17 -2.816 # orig: 7.0
</weight>
<weight id='EFTrwgt2_ctG_-1.383_cQq83_5.883_cQq81_-5.515_cQu8_2.394_cQd8_-9.03_ctq8_-0.054_ctu8_-11.517_ctd8_-10.825_cQq13_-0.011_cQq11_4.192_cQu1_6.747_cQd1_8.549_ctq1_7.513_ctu1_-7.841_ctd1_7.605'>set param_card dim62f 24 -1.383 # orig: 0.7
set param_card dim64f 1 5.883 # orig: 9.0
set param_card dim64f 2 -5.515 # orig: 7.0
set param_card dim64f 3 2.394 # orig: 9.5
set param_card dim64f 4 -0.054 # orig: 7.0
set param_card dim64f 6 -9.03 # orig: 12.0
set param_card dim64f 7 -11.517 # orig: 9.0
set param_card dim64f 8 -10.825 # orig: 12.4
set param_card dim64f 10 -0.011 # orig: 4.1
set param_card dim64f 11 4.192 # orig: 4.2
set param_card dim64f 12 6.747 # orig: 5.5
set param_card dim64f 13 7.513 # orig: 4.4
set param_card dim64f 14 8.549 # orig: 7.0
set param_card dim64f 16 -7.841 # orig: 5.4
set param_card dim64f 17 7.605 # orig: 7.0
</weight>
<weight id='EFTrwgt3_ctG_0.83_cQq83_7.564_cQq81_-4.758_cQu8_11.03_cQd8_2.018_ctq8_13.609_ctu8_6.693_ctd8_12.801_cQq13_1.059_cQq11_-4.128_cQu1_0.962_cQd1_4.274_ctq1_8.055_ctu1_-10.409_ctd1_-1.438'>set param_card dim62f 24 0.83 # orig: 0.7
set param_card dim64f 1 7.564 # orig: 9.0
set param_card dim64f 2 -4.758 # orig: 7.0
set param_card dim64f 3 11.03 # orig: 9.5
set param_card dim64f 4 13.609 # orig: 7.0
set param_card dim64f 6 2.018 # orig: 12.0
set param_card dim64f 7 6.693 # orig: 9.0
set param_card dim64f 8 12.801 # orig: 12.4
set param_card dim64f 10 1.059 # orig: 4.1
set param_card dim64f 11 -4.128 # orig: 4.2
set param_card dim64f 12 0.962 # orig: 5.5
set param_card dim64f 13 8.055 # orig: 4.4
set param_card dim64f 14 4.274 # orig: 7.0
set param_card dim64f 16 -10.409 # orig: 5.4
set param_card dim64f 17 -1.438 # orig: 7.0
</weight>
<weight id='EFTrwgt4_ctG_0.635_cQq83_-11.713_cQq81_0.383_cQu8_10.984_cQd8_-20.924_ctq8_-2.091_ctu8_5.555_ctd8_1.514_cQq13_3.429_cQq11_-0.162_cQu1_-10.649_cQd1_5.475_ctq1_5.872_ctu1_-1.687_ctd1_-8.071'>set param_card dim62f 24 0.635 # orig: 0.7
set param_card dim64f 1 -11.713 # orig: 9.0
set param_card dim64f 2 0.383 # orig: 7.0
set param_card dim64f 3 10.984 # orig: 9.5
set param_card dim64f 4 -2.091 # orig: 7.0
set param_card dim64f 6 -20.924 # orig: 12.0
set param_card dim64f 7 5.555 # orig: 9.0
set param_card dim64f 8 1.514 # orig: 12.4
set param_card dim64f 10 3.429 # orig: 4.1
set param_card dim64f 11 -0.162 # orig: 4.2
set param_card dim64f 12 -10.649 # orig: 5.5
set param_card dim64f 13 5.872 # orig: 4.4
set param_card dim64f 14 5.475 # orig: 7.0
set param_card dim64f 16 -1.687 # orig: 5.4
set param_card dim64f 17 -8.071 # orig: 7.0
</weight>
<weight id='EFTrwgt5_ctG_0.29_cQq83_4.054_cQq81_-1.527_cQu8_-4.305_cQd8_-20.381_ctq8_12.02_ctu8_-17.198_ctd8_4.416_cQq13_-0.765_cQq11_-1.818_cQu1_-0.276_cQd1_12.045_ctq1_-6.626_ctu1_4.803_ctd1_5.994'>set param_card dim62f 24 0.29 # orig: 0.7
set param_card dim64f 1 4.054 # orig: 9.0
set param_card dim64f 2 -1.527 # orig: 7.0
set param_card dim64f 3 -4.305 # orig: 9.5
set param_card dim64f 4 12.02 # orig: 7.0
set param_card dim64f 6 -20.381 # orig: 12.0
set param_card dim64f 7 -17.198 # orig: 9.0
set param_card dim64f 8 4.416 # orig: 12.4
set param_card dim64f 10 -0.765 # orig: 4.1
set param_card dim64f 11 -1.818 # orig: 4.2
set param_card dim64f 12 -0.276 # orig: 5.5
set param_card dim64f 13 -6.626 # orig: 4.4
set param_card dim64f 14 12.045 # orig: 7.0
set param_card dim64f 16 4.803 # orig: 5.4
set param_card dim64f 17 5.994 # orig: 7.0
</weight>
<weight id='EFTrwgt6_ctG_0.363_cQq83_-5.38_cQq81_10.485_cQu8_-11.932_cQd8_-4.948_ctq8_9.185_ctu8_-12.064_ctd8_17.315_cQq13_-0.222_cQq11_-6.441_cQu1_-7.804_cQd1_-9.036_ctq1_-7.458_ctu1_9.293_ctd1_3.977'>set param_card dim62f 24 0.363 # orig: 0.7
set param_card dim64f 1 -5.38 # orig: 9.0
set param_card dim64f 2 10.485 # orig: 7.0
set param_card dim64f 3 -11.932 # orig: 9.5
set param_card dim64f 4 9.185 # orig: 7.0
set param_card dim64f 6 -4.948 # orig: 12.0
set param_card dim64f 7 -12.064 # orig: 9.0
set param_card dim64f 8 17.315 # orig: 12.4
set param_card dim64f 10 -0.222 # orig: 4.1
set param_card dim64f 11 -6.441 # orig: 4.2
set param_card dim64f 12 -7.804 # orig: 5.5
set param_card dim64f 13 -7.458 # orig: 4.4
set param_card dim64f 14 -9.036 # orig: 7.0
set param_card dim64f 16 9.293 # orig: 5.4
set param_card dim64f 17 3.977 # orig: 7.0
</weight>
<weight id='EFTrwgt7_ctG_-1.197_cQq83_-4.451_cQq81_7.597_cQu8_-7.443_cQd8_22.122_ctq8_3.031_ctu8_-12.259_ctd8_16.154_cQq13_-6.717_cQq11_-0.945_cQu1_5.096_cQd1_2.249_ctq1_-0.68_ctu1_-7.751_ctd1_8.44'>set param_card dim62f 24 -1.197 # orig: 0.7
set param_card dim64f 1 -4.451 # orig: 9.0
set param_card dim64f 2 7.597 # orig: 7.0
set param_card dim64f 3 -7.443 # orig: 9.5
set param_card dim64f 4 3.031 # orig: 7.0
set param_card dim64f 6 22.122 # orig: 12.0
set param_card dim64f 7 -12.259 # orig: 9.0
set param_card dim64f 8 16.154 # orig: 12.4
set param_card dim64f 10 -6.717 # orig: 4.1
set param_card dim64f 11 -0.945 # orig: 4.2
set param_card dim64f 12 5.096 # orig: 5.5
set param_card dim64f 13 -0.68 # orig: 4.4
set param_card dim64f 14 2.249 # orig: 7.0
set param_card dim64f 16 -7.751 # orig: 5.4
set param_card dim64f 17 8.44 # orig: 7.0
</weight>
<weight id='EFTrwgt8_ctG_0.542_cQq83_-14.102_cQq81_-2.643_cQu8_18.837_cQd8_-13.941_ctq8_-13.421_ctu8_13.125_ctd8_-6.068_cQq13_-0.748_cQq11_-1.138_cQu1_3.707_cQd1_-4.4_ctq1_2.065_ctu1_5.13_ctd1_4.025'>set param_card dim62f 24 0.542 # orig: 0.7
set param_card dim64f 1 -14.102 # orig: 9.0
set param_card dim64f 2 -2.643 # orig: 7.0
set param_card dim64f 3 18.837 # orig: 9.5
set param_card dim64f 4 -13.421 # orig: 7.0
set param_card dim64f 6 -13.941 # orig: 12.0
set param_card dim64f 7 13.125 # orig: 9.0
set param_card dim64f 8 -6.068 # orig: 12.4
set param_card dim64f 10 -0.748 # orig: 4.1
set param_card dim64f 11 -1.138 # orig: 4.2
set param_card dim64f 12 3.707 # orig: 5.5
set param_card dim64f 13 2.065 # orig: 4.4
set param_card dim64f 14 -4.4 # orig: 7.0
set param_card dim64f 16 5.13 # orig: 5.4
set param_card dim64f 17 4.025 # orig: 7.0
</weight>
<weight id='EFTrwgt9_ctG_1.074_cQq83_4.736_cQq81_-13.002_cQu8_-15.389_cQd8_0.91_ctq8_-9.328_ctu8_7.624_ctd8_-22.019_cQq13_3.75_cQq11_-2.977_cQu1_-3.02_cQd1_-13.923_ctq1_-7.186_ctu1_2.633_ctd1_-7.896'>set param_card dim62f 24 1.074 # orig: 0.7
set param_card dim64f 1 4.736 # orig: 9.0
set param_card dim64f 2 -13.002 # orig: 7.0
set param_card dim64f 3 -15.389 # orig: 9.5
set param_card dim64f 4 -9.328 # orig: 7.0
set param_card dim64f 6 0.91 # orig: 12.0
set param_card dim64f 7 7.624 # orig: 9.0
set param_card dim64f 8 -22.019 # orig: 12.4
set param_card dim64f 10 3.75 # orig: 4.1
set param_card dim64f 11 -2.977 # orig: 4.2
set param_card dim64f 12 -3.02 # orig: 5.5
set param_card dim64f 13 -7.186 # orig: 4.4
set param_card dim64f 14 -13.923 # orig: 7.0
set param_card dim64f 16 2.633 # orig: 5.4
set param_card dim64f 17 -7.896 # orig: 7.0
</weight>
<weight id='EFTrwgt10_ctG_1.238_cQq83_-17.533_cQq81_12.633_cQu8_3.116_cQd8_9.117_ctq8_-4.456_ctu8_0.149_ctd8_15.76_cQq13_-4.569_cQq11_4.155_cQu1_6.051_cQd1_-8.105_ctq1_0.824_ctu1_0.75_ctd1_6.587'>set param_card dim62f 24 1.238 # orig: 0.7
set param_card dim64f 1 -17.533 # orig: 9.0
set param_card dim64f 2 12.633 # orig: 7.0
set param_card dim64f 3 3.116 # orig: 9.5
set param_card dim64f 4 -4.456 # orig: 7.0
set param_card dim64f 6 9.117 # orig: 12.0
set param_card dim64f 7 0.149 # orig: 9.0
set param_card dim64f 8 15.76 # orig: 12.4
set param_card dim64f 10 -4.569 # orig: 4.1
set param_card dim64f 11 4.155 # orig: 4.2
set param_card dim64f 12 6.051 # orig: 5.5
set param_card dim64f 13 0.824 # orig: 4.4
set param_card dim64f 14 -8.105 # orig: 7.0
set param_card dim64f 16 0.75 # orig: 5.4
set param_card dim64f 17 6.587 # orig: 7.0
</weight>
<weight id='EFTrwgt11_ctG_-1.233_cQq83_-17.319_cQq81_-5.312_cQu8_16.53_cQd8_-9.607_ctq8_-3.402_ctu8_-16.447_ctd8_-22.15_cQq13_-0.265_cQq11_4.394_cQu1_-0.387_cQd1_0.421_ctq1_2.017_ctu1_-6.772_ctd1_6.873'>set param_card dim62f 24 -1.233 # orig: 0.7
set param_card dim64f 1 -17.319 # orig: 9.0
set param_card dim64f 2 -5.312 # orig: 7.0
set param_card dim64f 3 16.53 # orig: 9.5
set param_card dim64f 4 -3.402 # orig: 7.0
set param_card dim64f 6 -9.607 # orig: 12.0
set param_card dim64f 7 -16.447 # orig: 9.0
set param_card dim64f 8 -22.15 # orig: 12.4
set param_card dim64f 10 -0.265 # orig: 4.1
set param_card dim64f 11 4.394 # orig: 4.2
set param_card dim64f 12 -0.387 # orig: 5.5
set param_card dim64f 13 2.017 # orig: 4.4
set param_card dim64f 14 0.421 # orig: 7.0
set param_card dim64f 16 -6.772 # orig: 5.4
set param_card dim64f 17 6.873 # orig: 7.0
</weight>
<weight id='EFTrwgt12_ctG_0.408_cQq83_-9.97_cQq81_3.05_cQu8_8.428_cQd8_-10.45_ctq8_-4.549_ctu8_7.41_ctd8_-18.252_cQq13_4.276_cQq11_0.305_cQu1_-4.657_cQd1_-5.86_ctq1_4.293_ctu1_-6.686_ctd1_-6.47'>set param_card dim62f 24 0.408 # orig: 0.7
set param_card dim64f 1 -9.97 # orig: 9.0
set param_card dim64f 2 3.05 # orig: 7.0
set param_card dim64f 3 8.428 # orig: 9.5
set param_card dim64f 4 -4.549 # orig: 7.0
set param_card dim64f 6 -10.45 # orig: 12.0
set param_card dim64f 7 7.41 # orig: 9.0
set param_card dim64f 8 -18.252 # orig: 12.4
set param_card dim64f 10 4.276 # orig: 4.1
set param_card dim64f 11 0.305 # orig: 4.2
set param_card dim64f 12 -4.657 # orig: 5.5
set param_card dim64f 13 4.293 # orig: 4.4
set param_card dim64f 14 -5.86 # orig: 7.0
set param_card dim64f 16 -6.686 # orig: 5.4
set param_card dim64f 17 -6.47 # orig: 7.0
</weight>
<weight id='EFTrwgt13_ctG_1.091_cQq83_16.651_cQq81_9.034_cQu8_-17.068_cQd8_-16.41_ctq8_5.505_ctu8_-6.023_ctd8_-19.606_cQq13_-1.427_cQq11_2.94_cQu1_-7.645_cQd1_-9.373_ctq1_-6.218_ctu1_1.987_ctd1_-10.94'>set param_card dim62f 24 1.091 # orig: 0.7
set param_card dim64f 1 16.651 # orig: 9.0
set param_card dim64f 2 9.034 # orig: 7.0
set param_card dim64f 3 -17.068 # orig: 9.5
set param_card dim64f 4 5.505 # orig: 7.0
set param_card dim64f 6 -16.41 # orig: 12.0
set param_card dim64f 7 -6.023 # orig: 9.0
set param_card dim64f 8 -19.606 # orig: 12.4
set param_card dim64f 10 -1.427 # orig: 4.1
set param_card dim64f 11 2.94 # orig: 4.2
set param_card dim64f 12 -7.645 # orig: 5.5
set param_card dim64f 13 -6.218 # orig: 4.4
set param_card dim64f 14 -9.373 # orig: 7.0
set param_card dim64f 16 1.987 # orig: 5.4
set param_card dim64f 17 -10.94 # orig: 7.0
</weight>
<weight id='EFTrwgt14_ctG_-0.901_cQq83_-3.298_cQq81_-0.028_cQu8_-17.181_cQd8_-17.858_ctq8_-13.488_ctu8_-10.256_ctd8_-0.921_cQq13_4.443_cQq11_-0.633_cQu1_-9.228_cQd1_11.328_ctq1_-0.213_ctu1_-0.551_ctd1_-5.789'>set param_card dim62f 24 -0.901 # orig: 0.7
set param_card dim64f 1 -3.298 # orig: 9.0
set param_card dim64f 2 -0.028 # orig: 7.0
set param_card dim64f 3 -17.181 # orig: 9.5
set param_card dim64f 4 -13.488 # orig: 7.0
set param_card dim64f 6 -17.858 # orig: 12.0
set param_card dim64f 7 -10.256 # orig: 9.0
set param_card dim64f 8 -0.921 # orig: 12.4
set param_card dim64f 10 4.443 # orig: 4.1
set param_card dim64f 11 -0.633 # orig: 4.2
set param_card dim64f 12 -9.228 # orig: 5.5
set param_card dim64f 13 -0.213 # orig: 4.4
set param_card dim64f 14 11.328 # orig: 7.0
set param_card dim64f 16 -0.551 # orig: 5.4
set param_card dim64f 17 -5.789 # orig: 7.0
</weight>
<weight id='EFTrwgt15_ctG_1.026_cQq83_10.852_cQq81_-7.218_cQu8_6.384_cQd8_16.276_ctq8_-4.737_ctu8_-13.404_ctd8_1.733_cQq13_7.315_cQq11_-8.101_cQu1_-2.738_cQd1_7.548_ctq1_8.479_ctu1_-6.738_ctd1_-5.539'>set param_card dim62f 24 1.026 # orig: 0.7
set param_card dim64f 1 10.852 # orig: 9.0
set param_card dim64f 2 -7.218 # orig: 7.0
set param_card dim64f 3 6.384 # orig: 9.5
set param_card dim64f 4 -4.737 # orig: 7.0
set param_card dim64f 6 16.276 # orig: 12.0
set param_card dim64f 7 -13.404 # orig: 9.0
set param_card dim64f 8 1.733 # orig: 12.4
set param_card dim64f 10 7.315 # orig: 4.1
set param_card dim64f 11 -8.101 # orig: 4.2
set param_card dim64f 12 -2.738 # orig: 5.5
set param_card dim64f 13 8.479 # orig: 4.4
set param_card dim64f 14 7.548 # orig: 7.0
set param_card dim64f 16 -6.738 # orig: 5.4
set param_card dim64f 17 -5.539 # orig: 7.0
</weight>
<weight id='EFTrwgt16_ctG_-0.132_cQq83_-16.656_cQq81_4.305_cQu8_-12.062_cQd8_4.31_ctq8_13.615_ctu8_3.27_ctd8_11.552_cQq13_-1.799_cQq11_7.423_cQu1_6.843_cQd1_13.535_ctq1_0.146_ctu1_7.054_ctd1_9.686'>set param_card dim62f 24 -0.132 # orig: 0.7
set param_card dim64f 1 -16.656 # orig: 9.0
set param_card dim64f 2 4.305 # orig: 7.0
set param_card dim64f 3 -12.062 # orig: 9.5
set param_card dim64f 4 13.615 # orig: 7.0
set param_card dim64f 6 4.31 # orig: 12.0
set param_card dim64f 7 3.27 # orig: 9.0
set param_card dim64f 8 11.552 # orig: 12.4
set param_card dim64f 10 -1.799 # orig: 4.1
set param_card dim64f 11 7.423 # orig: 4.2
set param_card dim64f 12 6.843 # orig: 5.5
set param_card dim64f 13 0.146 # orig: 4.4
set param_card dim64f 14 13.535 # orig: 7.0
set param_card dim64f 16 7.054 # orig: 5.4
set param_card dim64f 17 9.686 # orig: 7.0
</weight>
<weight id='EFTrwgt17_ctG_0.712_cQq83_-6.61_cQq81_-4.301_cQu8_-1.403_cQd8_6.303_ctq8_-4.86_ctu8_3.128_ctd8_-14.844_cQq13_0.039_cQq11_-4.957_cQu1_2.629_cQd1_-12.532_ctq1_4.939_ctu1_-4.209_ctd1_-3.655'>set param_card dim62f 24 0.712 # orig: 0.7
set param_card dim64f 1 -6.61 # orig: 9.0
set param_card dim64f 2 -4.301 # orig: 7.0
set param_card dim64f 3 -1.403 # orig: 9.5
set param_card dim64f 4 -4.86 # orig: 7.0
set param_card dim64f 6 6.303 # orig: 12.0
set param_card dim64f 7 3.128 # orig: 9.0
set param_card dim64f 8 -14.844 # orig: 12.4
set param_card dim64f 10 0.039 # orig: 4.1
set param_card dim64f 11 -4.957 # orig: 4.2
set param_card dim64f 12 2.629 # orig: 5.5
set param_card dim64f 13 4.939 # orig: 4.4
set param_card dim64f 14 -12.532 # orig: 7.0
set param_card dim64f 16 -4.209 # orig: 5.4
set param_card dim64f 17 -3.655 # orig: 7.0
</weight>
<weight id='EFTrwgt18_ctG_-1.35_cQq83_-11.68_cQq81_4.439_cQu8_13.372_cQd8_-0.653_ctq8_5.688_ctu8_0.67_ctd8_-7.709_cQq13_-5.475_cQq11_-5.399_cQu1_3.601_cQd1_-8.439_ctq1_1.117_ctu1_-0.006_ctd1_13.614'>set param_card dim62f 24 -1.35 # orig: 0.7
set param_card dim64f 1 -11.68 # orig: 9.0
set param_card dim64f 2 4.439 # orig: 7.0
set param_card dim64f 3 13.372 # orig: 9.5
set param_card dim64f 4 5.688 # orig: 7.0
set param_card dim64f 6 -0.653 # orig: 12.0
set param_card dim64f 7 0.67 # orig: 9.0
set param_card dim64f 8 -7.709 # orig: 12.4
set param_card dim64f 10 -5.475 # orig: 4.1
set param_card dim64f 11 -5.399 # orig: 4.2
set param_card dim64f 12 3.601 # orig: 5.5
set param_card dim64f 13 1.117 # orig: 4.4
set param_card dim64f 14 -8.439 # orig: 7.0
set param_card dim64f 16 -0.006 # orig: 5.4
set param_card dim64f 17 13.614 # orig: 7.0
</weight>
<weight id='EFTrwgt19_ctG_0.098_cQq83_15.517_cQq81_-5.712_cQu8_-4.013_cQd8_-7.836_ctq8_-1.046_ctu8_-12.063_ctd8_6.039_cQq13_-3.557_cQq11_7.181_cQu1_6.996_cQd1_-3.116_ctq1_1.869_ctu1_1.545_ctd1_-10.959'>set param_card dim62f 24 0.098 # orig: 0.7
set param_card dim64f 1 15.517 # orig: 9.0
set param_card dim64f 2 -5.712 # orig: 7.0
set param_card dim64f 3 -4.013 # orig: 9.5
set param_card dim64f 4 -1.046 # orig: 7.0
set param_card dim64f 6 -7.836 # orig: 12.0
set param_card dim64f 7 -12.063 # orig: 9.0
set param_card dim64f 8 6.039 # orig: 12.4
set param_card dim64f 10 -3.557 # orig: 4.1
set param_card dim64f 11 7.181 # orig: 4.2
set param_card dim64f 12 6.996 # orig: 5.5
set param_card dim64f 13 1.869 # orig: 4.4
set param_card dim64f 14 -3.116 # orig: 7.0
set param_card dim64f 16 1.545 # orig: 5.4
set param_card dim64f 17 -10.959 # orig: 7.0
</weight>
<weight id='EFTrwgt20_ctG_0.401_cQq83_8.943_cQq81_9.36_cQu8_14.22_cQd8_-14.886_ctq8_8.313_ctu8_5.302_ctd8_-10.568_cQq13_-2.406_cQq11_5.185_cQu1_-6.752_cQd1_-3.344_ctq1_-0.322_ctu1_-1.749_ctd1_2.241'>set param_card dim62f 24 0.401 # orig: 0.7
set param_card dim64f 1 8.943 # orig: 9.0
set param_card dim64f 2 9.36 # orig: 7.0
set param_card dim64f 3 14.22 # orig: 9.5
set param_card dim64f 4 8.313 # orig: 7.0
set param_card dim64f 6 -14.886 # orig: 12.0
set param_card dim64f 7 5.302 # orig: 9.0
set param_card dim64f 8 -10.568 # orig: 12.4
set param_card dim64f 10 -2.406 # orig: 4.1
set param_card dim64f 11 5.185 # orig: 4.2
set param_card dim64f 12 -6.752 # orig: 5.5
set param_card dim64f 13 -0.322 # orig: 4.4
set param_card dim64f 14 -3.344 # orig: 7.0
set param_card dim64f 16 -1.749 # orig: 5.4
set param_card dim64f 17 2.241 # orig: 7.0
</weight>
<weight id='EFTrwgt21_ctG_0.263_cQq83_-7.003_cQq81_9.705_cQu8_13.582_cQd8_19.058_ctq8_12.946_ctu8_6.424_ctd8_17.248_cQq13_-4.887_cQq11_-3.405_cQu1_10.633_cQd1_-6.948_ctq1_5.694_ctu1_-6.922_ctd1_1.277'>set param_card dim62f 24 0.263 # orig: 0.7
set param_card dim64f 1 -7.003 # orig: 9.0
set param_card dim64f 2 9.705 # orig: 7.0
set param_card dim64f 3 13.582 # orig: 9.5
set param_card dim64f 4 12.946 # orig: 7.0
set param_card dim64f 6 19.058 # orig: 12.0
set param_card dim64f 7 6.424 # orig: 9.0
set param_card dim64f 8 17.248 # orig: 12.4
set param_card dim64f 10 -4.887 # orig: 4.1
set param_card dim64f 11 -3.405 # orig: 4.2
set param_card dim64f 12 10.633 # orig: 5.5
set param_card dim64f 13 5.694 # orig: 4.4
set param_card dim64f 14 -6.948 # orig: 7.0
set param_card dim64f 16 -6.922 # orig: 5.4
set param_card dim64f 17 1.277 # orig: 7.0
</weight>
<weight id='EFTrwgt22_ctG_0.627_cQq83_-17.281_cQq81_-4.961_cQu8_16.938_cQd8_22.735_ctq8_-1.208_ctu8_-3.511_ctd8_-5.122_cQq13_5.387_cQq11_-4.565_cQu1_7.804_cQd1_11.098_ctq1_-1.5_ctu1_8.736_ctd1_13.194'>set param_card dim62f 24 0.627 # orig: 0.7
set param_card dim64f 1 -17.281 # orig: 9.0
set param_card dim64f 2 -4.961 # orig: 7.0
set param_card dim64f 3 16.938 # orig: 9.5
set param_card dim64f 4 -1.208 # orig: 7.0
set param_card dim64f 6 22.735 # orig: 12.0
set param_card dim64f 7 -3.511 # orig: 9.0
set param_card dim64f 8 -5.122 # orig: 12.4
set param_card dim64f 10 5.387 # orig: 4.1
set param_card dim64f 11 -4.565 # orig: 4.2
set param_card dim64f 12 7.804 # orig: 5.5
set param_card dim64f 13 -1.5 # orig: 4.4
set param_card dim64f 14 11.098 # orig: 7.0
set param_card dim64f 16 8.736 # orig: 5.4
set param_card dim64f 17 13.194 # orig: 7.0
</weight>
<weight id='EFTrwgt23_ctG_-0.648_cQq83_15.811_cQq81_12.009_cQu8_-18.949_cQd8_0.783_ctq8_-3.059_ctu8_-17.702_ctd8_-6.711_cQq13_-4.356_cQq11_3.652_cQu1_-8.368_cQd1_-4.016_ctq1_2.411_ctu1_3.109_ctd1_4.001'>set param_card dim62f 24 -0.648 # orig: 0.7
set param_card dim64f 1 15.811 # orig: 9.0
set param_card dim64f 2 12.009 # orig: 7.0
set param_card dim64f 3 -18.949 # orig: 9.5
set param_card dim64f 4 -3.059 # orig: 7.0
set param_card dim64f 6 0.783 # orig: 12.0
set param_card dim64f 7 -17.702 # orig: 9.0
set param_card dim64f 8 -6.711 # orig: 12.4
set param_card dim64f 10 -4.356 # orig: 4.1
set param_card dim64f 11 3.652 # orig: 4.2
set param_card dim64f 12 -8.368 # orig: 5.5
set param_card dim64f 13 2.411 # orig: 4.4
set param_card dim64f 14 -4.016 # orig: 7.0
set param_card dim64f 16 3.109 # orig: 5.4
set param_card dim64f 17 4.001 # orig: 7.0
</weight>
<weight id='EFTrwgt24_ctG_0.279_cQq83_3.419_cQq81_-12.348_cQu8_-3.685_cQd8_-7.428_ctq8_10.986_ctu8_-5.15_ctd8_-17.732_cQq13_-2.497_cQq11_-5.647_cQu1_0.002_cQd1_-4.035_ctq1_-3.93_ctu1_-1.854_ctd1_8.352'>set param_card dim62f 24 0.279 # orig: 0.7
set param_card dim64f 1 3.419 # orig: 9.0
set param_card dim64f 2 -12.348 # orig: 7.0
set param_card dim64f 3 -3.685 # orig: 9.5
set param_card dim64f 4 10.986 # orig: 7.0
set param_card dim64f 6 -7.428 # orig: 12.0
set param_card dim64f 7 -5.15 # orig: 9.0
set param_card dim64f 8 -17.732 # orig: 12.4
set param_card dim64f 10 -2.497 # orig: 4.1
set param_card dim64f 11 -5.647 # orig: 4.2
set param_card dim64f 12 0.002 # orig: 5.5
set param_card dim64f 13 -3.93 # orig: 4.4
set param_card dim64f 14 -4.035 # orig: 7.0
set param_card dim64f 16 -1.854 # orig: 5.4
set param_card dim64f 17 8.352 # orig: 7.0
</weight>
<weight id='EFTrwgt25_ctG_1.257_cQq83_8.7_cQq81_-13.787_cQu8_1.396_cQd8_-4.553_ctq8_0.437_ctu8_6.957_ctd8_15.293_cQq13_7.476_cQq11_-5.974_cQu1_-3.383_cQd1_-2.371_ctq1_-0.219_ctu1_2.622_ctd1_-7.856'>set param_card dim62f 24 1.257 # orig: 0.7
set param_card dim64f 1 8.7 # orig: 9.0
set param_card dim64f 2 -13.787 # orig: 7.0
set param_card dim64f 3 1.396 # orig: 9.5
set param_card dim64f 4 0.437 # orig: 7.0
set param_card dim64f 6 -4.553 # orig: 12.0
set param_card dim64f 7 6.957 # orig: 9.0
set param_card dim64f 8 15.293 # orig: 12.4
set param_card dim64f 10 7.476 # orig: 4.1
set param_card dim64f 11 -5.974 # orig: 4.2
set param_card dim64f 12 -3.383 # orig: 5.5
set param_card dim64f 13 -0.219 # orig: 4.4
set param_card dim64f 14 -2.371 # orig: 7.0
set param_card dim64f 16 2.622 # orig: 5.4
set param_card dim64f 17 -7.856 # orig: 7.0
</weight>
<weight id='EFTrwgt26_ctG_-1.323_cQq83_-5.612_cQq81_0.616_cQu8_6.632_cQd8_-3.336_ctq8_13.782_ctu8_-3.939_ctd8_-15.742_cQq13_2.848_cQq11_5.501_cQu1_-1.125_cQd1_-13.284_ctq1_-0.806_ctu1_-0.98_ctd1_-3.316'>set param_card dim62f 24 -1.323 # orig: 0.7
set param_card dim64f 1 -5.612 # orig: 9.0
set param_card dim64f 2 0.616 # orig: 7.0
set param_card dim64f 3 6.632 # orig: 9.5
set param_card dim64f 4 13.782 # orig: 7.0
set param_card dim64f 6 -3.336 # orig: 12.0
set param_card dim64f 7 -3.939 # orig: 9.0
set param_card dim64f 8 -15.742 # orig: 12.4
set param_card dim64f 10 2.848 # orig: 4.1
set param_card dim64f 11 5.501 # orig: 4.2
set param_card dim64f 12 -1.125 # orig: 5.5
set param_card dim64f 13 -0.806 # orig: 4.4
set param_card dim64f 14 -13.284 # orig: 7.0
set param_card dim64f 16 -0.98 # orig: 5.4
set param_card dim64f 17 -3.316 # orig: 7.0
</weight>
<weight id='EFTrwgt27_ctG_-1.062_cQq83_-5.785_cQq81_-3.069_cQu8_7.318_cQd8_-18.47_ctq8_-5.182_ctu8_-7.369_ctd8_-7.449_cQq13_-0.119_cQq11_-7.366_cQu1_-4.956_cQd1_-13.113_ctq1_-1.612_ctu1_-8.864_ctd1_-9.975'>set param_card dim62f 24 -1.062 # orig: 0.7
set param_card dim64f 1 -5.785 # orig: 9.0
set param_card dim64f 2 -3.069 # orig: 7.0
set param_card dim64f 3 7.318 # orig: 9.5
set param_card dim64f 4 -5.182 # orig: 7.0
set param_card dim64f 6 -18.47 # orig: 12.0
set param_card dim64f 7 -7.369 # orig: 9.0
set param_card dim64f 8 -7.449 # orig: 12.4
set param_card dim64f 10 -0.119 # orig: 4.1
set param_card dim64f 11 -7.366 # orig: 4.2
set param_card dim64f 12 -4.956 # orig: 5.5
set param_card dim64f 13 -1.612 # orig: 4.4
set param_card dim64f 14 -13.113 # orig: 7.0
set param_card dim64f 16 -8.864 # orig: 5.4
set param_card dim64f 17 -9.975 # orig: 7.0
</weight>
<weight id='EFTrwgt28_ctG_0.241_cQq83_-10.317_cQq81_-13.275_cQu8_-8.248_cQd8_-17.794_ctq8_-12.823_ctu8_-16.47_ctd8_-4.449_cQq13_-2.362_cQq11_4.11_cQu1_-10.775_cQd1_-8.582_ctq1_2.037_ctu1_-10.4_ctd1_1.059'>set param_card dim62f 24 0.241 # orig: 0.7
set param_card dim64f 1 -10.317 # orig: 9.0
set param_card dim64f 2 -13.275 # orig: 7.0
set param_card dim64f 3 -8.248 # orig: 9.5
set param_card dim64f 4 -12.823 # orig: 7.0
set param_card dim64f 6 -17.794 # orig: 12.0
set param_card dim64f 7 -16.47 # orig: 9.0
set param_card dim64f 8 -4.449 # orig: 12.4
set param_card dim64f 10 -2.362 # orig: 4.1
set param_card dim64f 11 4.11 # orig: 4.2
set param_card dim64f 12 -10.775 # orig: 5.5
set param_card dim64f 13 2.037 # orig: 4.4
set param_card dim64f 14 -8.582 # orig: 7.0
set param_card dim64f 16 -10.4 # orig: 5.4
set param_card dim64f 17 1.059 # orig: 7.0
</weight>
<weight id='EFTrwgt29_ctG_0.186_cQq83_-14.559_cQq81_-7.088_cQu8_-18.724_cQd8_-0.974_ctq8_-0.831_ctu8_6.546_ctd8_-21.38_cQq13_-1.637_cQq11_2.85_cQu1_2.42_cQd1_-0.935_ctq1_-8.07_ctu1_5.575_ctd1_0.549'>set param_card dim62f 24 0.186 # orig: 0.7
set param_card dim64f 1 -14.559 # orig: 9.0
set param_card dim64f 2 -7.088 # orig: 7.0
set param_card dim64f 3 -18.724 # orig: 9.5
set param_card dim64f 4 -0.831 # orig: 7.0
set param_card dim64f 6 -0.974 # orig: 12.0
set param_card dim64f 7 6.546 # orig: 9.0
set param_card dim64f 8 -21.38 # orig: 12.4
set param_card dim64f 10 -1.637 # orig: 4.1
set param_card dim64f 11 2.85 # orig: 4.2
set param_card dim64f 12 2.42 # orig: 5.5
set param_card dim64f 13 -8.07 # orig: 4.4
set param_card dim64f 14 -0.935 # orig: 7.0
set param_card dim64f 16 5.575 # orig: 5.4
set param_card dim64f 17 0.549 # orig: 7.0
</weight>
<weight id='EFTrwgt30_ctG_-1.395_cQq83_-10.203_cQq81_12.938_cQu8_3.137_cQd8_11.131_ctq8_9.079_ctu8_-0.374_ctd8_-23.313_cQq13_-4.383_cQq11_-1.0_cQu1_1.541_cQd1_2.342_ctq1_-4.241_ctu1_-4.162_ctd1_-12.306'>set param_card dim62f 24 -1.395 # orig: 0.7
set param_card dim64f 1 -10.203 # orig: 9.0
set param_card dim64f 2 12.938 # orig: 7.0
set param_card dim64f 3 3.137 # orig: 9.5
set param_card dim64f 4 9.079 # orig: 7.0
set param_card dim64f 6 11.131 # orig: 12.0
set param_card dim64f 7 -0.374 # orig: 9.0
set param_card dim64f 8 -23.313 # orig: 12.4
set param_card dim64f 10 -4.383 # orig: 4.1
set param_card dim64f 11 -1.0 # orig: 4.2
set param_card dim64f 12 1.541 # orig: 5.5
set param_card dim64f 13 -4.241 # orig: 4.4
set param_card dim64f 14 2.342 # orig: 7.0
set param_card dim64f 16 -4.162 # orig: 5.4
set param_card dim64f 17 -12.306 # orig: 7.0
</weight>
<weight id='EFTrwgt31_ctG_0.115_cQq83_-15.901_cQq81_-6.358_cQu8_-16.907_cQd8_-5.747_ctq8_2.066_ctu8_-12.966_ctd8_-16.328_cQq13_-3.096_cQq11_2.684_cQu1_-8.352_cQd1_-6.211_ctq1_2.511_ctu1_5.799_ctd1_9.554'>set param_card dim62f 24 0.115 # orig: 0.7
set param_card dim64f 1 -15.901 # orig: 9.0
set param_card dim64f 2 -6.358 # orig: 7.0
set param_card dim64f 3 -16.907 # orig: 9.5
set param_card dim64f 4 2.066 # orig: 7.0
set param_card dim64f 6 -5.747 # orig: 12.0
set param_card dim64f 7 -12.966 # orig: 9.0
set param_card dim64f 8 -16.328 # orig: 12.4
set param_card dim64f 10 -3.096 # orig: 4.1
set param_card dim64f 11 2.684 # orig: 4.2
set param_card dim64f 12 -8.352 # orig: 5.5
set param_card dim64f 13 2.511 # orig: 4.4
set param_card dim64f 14 -6.211 # orig: 7.0
set param_card dim64f 16 5.799 # orig: 5.4
set param_card dim64f 17 9.554 # orig: 7.0
</weight>
<weight id='EFTrwgt32_ctG_1.117_cQq83_2.704_cQq81_7.787_cQu8_-16.533_cQd8_8.904_ctq8_10.253_ctu8_2.612_ctd8_4.645_cQq13_-5.493_cQq11_2.812_cQu1_-7.509_cQd1_-3.19_ctq1_-6.22_ctu1_5.276_ctd1_5.86'>set param_card dim62f 24 1.117 # orig: 0.7
set param_card dim64f 1 2.704 # orig: 9.0
set param_card dim64f 2 7.787 # orig: 7.0
set param_card dim64f 3 -16.533 # orig: 9.5
set param_card dim64f 4 10.253 # orig: 7.0
set param_card dim64f 6 8.904 # orig: 12.0
set param_card dim64f 7 2.612 # orig: 9.0
set param_card dim64f 8 4.645 # orig: 12.4
set param_card dim64f 10 -5.493 # orig: 4.1
set param_card dim64f 11 2.812 # orig: 4.2
set param_card dim64f 12 -7.509 # orig: 5.5
set param_card dim64f 13 -6.22 # orig: 4.4
set param_card dim64f 14 -3.19 # orig: 7.0
set param_card dim64f 16 5.276 # orig: 5.4
set param_card dim64f 17 5.86 # orig: 7.0
</weight>
<weight id='EFTrwgt33_ctG_0.209_cQq83_-8.091_cQq81_-11.607_cQu8_-16.123_cQd8_-8.064_ctq8_-3.29_ctu8_-14.767_ctd8_-13.018_cQq13_-5.739_cQq11_0.542_cQu1_-1.411_cQd1_-8.179_ctq1_-5.997_ctu1_-7.343_ctd1_12.169'>set param_card dim62f 24 0.209 # orig: 0.7
set param_card dim64f 1 -8.091 # orig: 9.0
set param_card dim64f 2 -11.607 # orig: 7.0
set param_card dim64f 3 -16.123 # orig: 9.5
set param_card dim64f 4 -3.29 # orig: 7.0
set param_card dim64f 6 -8.064 # orig: 12.0
set param_card dim64f 7 -14.767 # orig: 9.0
set param_card dim64f 8 -13.018 # orig: 12.4
set param_card dim64f 10 -5.739 # orig: 4.1
set param_card dim64f 11 0.542 # orig: 4.2
set param_card dim64f 12 -1.411 # orig: 5.5
set param_card dim64f 13 -5.997 # orig: 4.4
set param_card dim64f 14 -8.179 # orig: 7.0
set param_card dim64f 16 -7.343 # orig: 5.4
set param_card dim64f 17 12.169 # orig: 7.0
</weight>
<weight id='EFTrwgt34_ctG_-1.122_cQq83_6.387_cQq81_-1.268_cQu8_-5.867_cQd8_-9.336_ctq8_-2.052_ctu8_-17.13_ctd8_21.742_cQq13_0.581_cQq11_5.886_cQu1_-10.133_cQd1_-11.29_ctq1_-6.71_ctu1_3.942_ctd1_9.713'>set param_card dim62f 24 -1.122 # orig: 0.7
set param_card dim64f 1 6.387 # orig: 9.0
set param_card dim64f 2 -1.268 # orig: 7.0
set param_card dim64f 3 -5.867 # orig: 9.5
set param_card dim64f 4 -2.052 # orig: 7.0
set param_card dim64f 6 -9.336 # orig: 12.0
set param_card dim64f 7 -17.13 # orig: 9.0
set param_card dim64f 8 21.742 # orig: 12.4
set param_card dim64f 10 0.581 # orig: 4.1
set param_card dim64f 11 5.886 # orig: 4.2
set param_card dim64f 12 -10.133 # orig: 5.5
set param_card dim64f 13 -6.71 # orig: 4.4
set param_card dim64f 14 -11.29 # orig: 7.0
set param_card dim64f 16 3.942 # orig: 5.4
set param_card dim64f 17 9.713 # orig: 7.0
</weight>
<weight id='EFTrwgt35_ctG_-1.321_cQq83_10.781_cQq81_5.96_cQu8_-16.967_cQd8_5.511_ctq8_-3.29_ctu8_-3.816_ctd8_-14.387_cQq13_-5.938_cQq11_-2.941_cQu1_-5.98_cQd1_11.576_ctq1_0.788_ctu1_10.277_ctd1_-4.905'>set param_card dim62f 24 -1.321 # orig: 0.7
set param_card dim64f 1 10.781 # orig: 9.0
set param_card dim64f 2 5.96 # orig: 7.0
set param_card dim64f 3 -16.967 # orig: 9.5
set param_card dim64f 4 -3.29 # orig: 7.0
set param_card dim64f 6 5.511 # orig: 12.0
set param_card dim64f 7 -3.816 # orig: 9.0
set param_card dim64f 8 -14.387 # orig: 12.4
set param_card dim64f 10 -5.938 # orig: 4.1
set param_card dim64f 11 -2.941 # orig: 4.2
set param_card dim64f 12 -5.98 # orig: 5.5
set param_card dim64f 13 0.788 # orig: 4.4
set param_card dim64f 14 11.576 # orig: 7.0
set param_card dim64f 16 10.277 # orig: 5.4
set param_card dim64f 17 -4.905 # orig: 7.0
</weight>
<weight id='EFTrwgt36_ctG_-0.68_cQq83_-4.656_cQq81_2.64_cQu8_-5.091_cQd8_-6.267_ctq8_12.357_ctu8_4.141_ctd8_8.527_cQq13_4.229_cQq11_-0.357_cQu1_6.729_cQd1_-0.812_ctq1_5.304_ctu1_-6.109_ctd1_-13.243'>set param_card dim62f 24 -0.68 # orig: 0.7
set param_card dim64f 1 -4.656 # orig: 9.0
set param_card dim64f 2 2.64 # orig: 7.0
set param_card dim64f 3 -5.091 # orig: 9.5
set param_card dim64f 4 12.357 # orig: 7.0
set param_card dim64f 6 -6.267 # orig: 12.0
set param_card dim64f 7 4.141 # orig: 9.0
set param_card dim64f 8 8.527 # orig: 12.4
set param_card dim64f 10 4.229 # orig: 4.1
set param_card dim64f 11 -0.357 # orig: 4.2
set param_card dim64f 12 6.729 # orig: 5.5
set param_card dim64f 13 5.304 # orig: 4.4
set param_card dim64f 14 -0.812 # orig: 7.0
set param_card dim64f 16 -6.109 # orig: 5.4
set param_card dim64f 17 -13.243 # orig: 7.0
</weight>
<weight id='EFTrwgt37_ctG_-1.287_cQq83_-9.3_cQq81_-1.066_cQu8_-15.272_cQd8_5.656_ctq8_0.824_ctu8_-7.129_ctd8_-5.439_cQq13_-7.864_cQq11_0.302_cQu1_3.094_cQd1_1.84_ctq1_-4.372_ctu1_-7.563_ctd1_2.217'>set param_card dim62f 24 -1.287 # orig: 0.7
set param_card dim64f 1 -9.3 # orig: 9.0
set param_card dim64f 2 -1.066 # orig: 7.0
set param_card dim64f 3 -15.272 # orig: 9.5
set param_card dim64f 4 0.824 # orig: 7.0
set param_card dim64f 6 5.656 # orig: 12.0
set param_card dim64f 7 -7.129 # orig: 9.0
set param_card dim64f 8 -5.439 # orig: 12.4
set param_card dim64f 10 -7.864 # orig: 4.1
set param_card dim64f 11 0.302 # orig: 4.2
set param_card dim64f 12 3.094 # orig: 5.5
set param_card dim64f 13 -4.372 # orig: 4.4
set param_card dim64f 14 1.84 # orig: 7.0
set param_card dim64f 16 -7.563 # orig: 5.4
set param_card dim64f 17 2.217 # orig: 7.0
</weight>
<weight id='EFTrwgt38_ctG_0.789_cQq83_2.618_cQq81_-0.896_cQu8_4.006_cQd8_12.013_ctq8_-9.44_ctu8_-16.781_ctd8_-6.655_cQq13_-5.548_cQq11_2.529_cQu1_7.52_cQd1_-4.256_ctq1_5.745_ctu1_0.798_ctd1_7.829'>set param_card dim62f 24 0.789 # orig: 0.7
set param_card dim64f 1 2.618 # orig: 9.0
set param_card dim64f 2 -0.896 # orig: 7.0
set param_card dim64f 3 4.006 # orig: 9.5
set param_card dim64f 4 -9.44 # orig: 7.0
set param_card dim64f 6 12.013 # orig: 12.0
set param_card dim64f 7 -16.781 # orig: 9.0
set param_card dim64f 8 -6.655 # orig: 12.4
set param_card dim64f 10 -5.548 # orig: 4.1
set param_card dim64f 11 2.529 # orig: 4.2
set param_card dim64f 12 7.52 # orig: 5.5
set param_card dim64f 13 5.745 # orig: 4.4
set param_card dim64f 14 -4.256 # orig: 7.0
set param_card dim64f 16 0.798 # orig: 5.4
set param_card dim64f 17 7.829 # orig: 7.0
</weight>
<weight id='EFTrwgt39_ctG_0.721_cQq83_1.632_cQq81_7.373_cQu8_-0.631_cQd8_4.104_ctq8_12.802_ctu8_-10.868_ctd8_-5.968_cQq13_-1.832_cQq11_-3.336_cQu1_-4.17_cQd1_-6.056_ctq1_-3.676_ctu1_5.679_ctd1_-9.027'>set param_card dim62f 24 0.721 # orig: 0.7
set param_card dim64f 1 1.632 # orig: 9.0
set param_card dim64f 2 7.373 # orig: 7.0
set param_card dim64f 3 -0.631 # orig: 9.5
set param_card dim64f 4 12.802 # orig: 7.0
set param_card dim64f 6 4.104 # orig: 12.0
set param_card dim64f 7 -10.868 # orig: 9.0
set param_card dim64f 8 -5.968 # orig: 12.4
set param_card dim64f 10 -1.832 # orig: 4.1
set param_card dim64f 11 -3.336 # orig: 4.2
set param_card dim64f 12 -4.17 # orig: 5.5
set param_card dim64f 13 -3.676 # orig: 4.4
set param_card dim64f 14 -6.056 # orig: 7.0
set param_card dim64f 16 5.679 # orig: 5.4
set param_card dim64f 17 -9.027 # orig: 7.0
</weight>
<weight id='EFTrwgt40_ctG_-0.362_cQq83_-1.589_cQq81_6.197_cQu8_-18.27_cQd8_7.832_ctq8_-9.399_ctu8_-6.455_ctd8_10.547_cQq13_-4.378_cQq11_5.514_cQu1_-8.215_cQd1_4.889_ctq1_5.265_ctu1_10.009_ctd1_3.422'>set param_card dim62f 24 -0.362 # orig: 0.7
set param_card dim64f 1 -1.589 # orig: 9.0
set param_card dim64f 2 6.197 # orig: 7.0
set param_card dim64f 3 -18.27 # orig: 9.5
set param_card dim64f 4 -9.399 # orig: 7.0
set param_card dim64f 6 7.832 # orig: 12.0
set param_card dim64f 7 -6.455 # orig: 9.0
set param_card dim64f 8 10.547 # orig: 12.4
set param_card dim64f 10 -4.378 # orig: 4.1
set param_card dim64f 11 5.514 # orig: 4.2
set param_card dim64f 12 -8.215 # orig: 5.5
set param_card dim64f 13 5.265 # orig: 4.4
set param_card dim64f 14 4.889 # orig: 7.0
set param_card dim64f 16 10.009 # orig: 5.4
set param_card dim64f 17 3.422 # orig: 7.0
</weight>
<weight id='EFTrwgt41_ctG_0.658_cQq83_-10.403_cQq81_3.211_cQu8_-2.337_cQd8_17.509_ctq8_6.996_ctu8_-1.761_ctd8_-2.923_cQq13_7.515_cQq11_-0.097_cQu1_0.074_cQd1_12.92_ctq1_-6.01_ctu1_-8.626_ctd1_2.326'>set param_card dim62f 24 0.658 # orig: 0.7
set param_card dim64f 1 -10.403 # orig: 9.0
set param_card dim64f 2 3.211 # orig: 7.0
set param_card dim64f 3 -2.337 # orig: 9.5
set param_card dim64f 4 6.996 # orig: 7.0
set param_card dim64f 6 17.509 # orig: 12.0
set param_card dim64f 7 -1.761 # orig: 9.0
set param_card dim64f 8 -2.923 # orig: 12.4
set param_card dim64f 10 7.515 # orig: 4.1
set param_card dim64f 11 -0.097 # orig: 4.2
set param_card dim64f 12 0.074 # orig: 5.5
set param_card dim64f 13 -6.01 # orig: 4.4
set param_card dim64f 14 12.92 # orig: 7.0
set param_card dim64f 16 -8.626 # orig: 5.4
set param_card dim64f 17 2.326 # orig: 7.0
</weight>
<weight id='EFTrwgt42_ctG_0.239_cQq83_-0.972_cQq81_-1.122_cQu8_-17.342_cQd8_-7.199_ctq8_-12.68_ctu8_1.247_ctd8_17.533_cQq13_-6.465_cQq11_-5.436_cQu1_9.489_cQd1_-0.985_ctq1_8.129_ctu1_-5.418_ctd1_5.104'>set param_card dim62f 24 0.239 # orig: 0.7
set param_card dim64f 1 -0.972 # orig: 9.0
set param_card dim64f 2 -1.122 # orig: 7.0
set param_card dim64f 3 -17.342 # orig: 9.5
set param_card dim64f 4 -12.68 # orig: 7.0
set param_card dim64f 6 -7.199 # orig: 12.0
set param_card dim64f 7 1.247 # orig: 9.0
set param_card dim64f 8 17.533 # orig: 12.4
set param_card dim64f 10 -6.465 # orig: 4.1
set param_card dim64f 11 -5.436 # orig: 4.2
set param_card dim64f 12 9.489 # orig: 5.5
set param_card dim64f 13 8.129 # orig: 4.4
set param_card dim64f 14 -0.985 # orig: 7.0
set param_card dim64f 16 -5.418 # orig: 5.4
set param_card dim64f 17 5.104 # orig: 7.0
</weight>
<weight id='EFTrwgt43_ctG_-0.649_cQq83_12.017_cQq81_-8.81_cQu8_-11.947_cQd8_-0.617_ctq8_-8.389_ctu8_-11.126_ctd8_-23.747_cQq13_-2.837_cQq11_5.496_cQu1_4.701_cQd1_4.955_ctq1_2.49_ctu1_2.683_ctd1_-7.631'>set param_card dim62f 24 -0.649 # orig: 0.7
set param_card dim64f 1 12.017 # orig: 9.0
set param_card dim64f 2 -8.81 # orig: 7.0
set param_card dim64f 3 -11.947 # orig: 9.5
set param_card dim64f 4 -8.389 # orig: 7.0
set param_card dim64f 6 -0.617 # orig: 12.0
set param_card dim64f 7 -11.126 # orig: 9.0
set param_card dim64f 8 -23.747 # orig: 12.4
set param_card dim64f 10 -2.837 # orig: 4.1
set param_card dim64f 11 5.496 # orig: 4.2
set param_card dim64f 12 4.701 # orig: 5.5
set param_card dim64f 13 2.49 # orig: 4.4
set param_card dim64f 14 4.955 # orig: 7.0
set param_card dim64f 16 2.683 # orig: 5.4
set param_card dim64f 17 -7.631 # orig: 7.0
</weight>
<weight id='EFTrwgt44_ctG_0.171_cQq83_12.009_cQq81_1.908_cQu8_4.651_cQd8_-17.53_ctq8_4.385_ctu8_9.354_ctd8_6.605_cQq13_0.349_cQq11_-3.295_cQu1_-5.85_cQd1_-13.524_ctq1_0.629_ctu1_-6.984_ctd1_13.334'>set param_card dim62f 24 0.171 # orig: 0.7
set param_card dim64f 1 12.009 # orig: 9.0
set param_card dim64f 2 1.908 # orig: 7.0
set param_card dim64f 3 4.651 # orig: 9.5
set param_card dim64f 4 4.385 # orig: 7.0
set param_card dim64f 6 -17.53 # orig: 12.0
set param_card dim64f 7 9.354 # orig: 9.0
set param_card dim64f 8 6.605 # orig: 12.4
set param_card dim64f 10 0.349 # orig: 4.1
set param_card dim64f 11 -3.295 # orig: 4.2
set param_card dim64f 12 -5.85 # orig: 5.5
set param_card dim64f 13 0.629 # orig: 4.4
set param_card dim64f 14 -13.524 # orig: 7.0
set param_card dim64f 16 -6.984 # orig: 5.4
set param_card dim64f 17 13.334 # orig: 7.0
</weight>
<weight id='EFTrwgt45_ctG_1.117_cQq83_-1.134_cQq81_0.846_cQu8_-17.819_cQd8_7.834_ctq8_-1.016_ctu8_17.048_ctd8_-16.169_cQq13_3.138_cQq11_-2.054_cQu1_-10.535_cQd1_-6.766_ctq1_2.47_ctu1_6.02_ctd1_11.267'>set param_card dim62f 24 1.117 # orig: 0.7
set param_card dim64f 1 -1.134 # orig: 9.0
set param_card dim64f 2 0.846 # orig: 7.0
set param_card dim64f 3 -17.819 # orig: 9.5
set param_card dim64f 4 -1.016 # orig: 7.0
set param_card dim64f 6 7.834 # orig: 12.0
set param_card dim64f 7 17.048 # orig: 9.0
set param_card dim64f 8 -16.169 # orig: 12.4
set param_card dim64f 10 3.138 # orig: 4.1
set param_card dim64f 11 -2.054 # orig: 4.2
set param_card dim64f 12 -10.535 # orig: 5.5
set param_card dim64f 13 2.47 # orig: 4.4
set param_card dim64f 14 -6.766 # orig: 7.0
set param_card dim64f 16 6.02 # orig: 5.4
set param_card dim64f 17 11.267 # orig: 7.0
</weight>
<weight id='EFTrwgt46_ctG_0.852_cQq83_-5.375_cQq81_-1.252_cQu8_-6.421_cQd8_17.384_ctq8_4.252_ctu8_6.891_ctd8_10.51_cQq13_-4.608_cQq11_7.589_cQu1_-6.678_cQd1_11.188_ctq1_-3.189_ctu1_-10.063_ctd1_0.955'>set param_card dim62f 24 0.852 # orig: 0.7
set param_card dim64f 1 -5.375 # orig: 9.0
set param_card dim64f 2 -1.252 # orig: 7.0
set param_card dim64f 3 -6.421 # orig: 9.5
set param_card dim64f 4 4.252 # orig: 7.0
set param_card dim64f 6 17.384 # orig: 12.0
set param_card dim64f 7 6.891 # orig: 9.0
set param_card dim64f 8 10.51 # orig: 12.4
set param_card dim64f 10 -4.608 # orig: 4.1
set param_card dim64f 11 7.589 # orig: 4.2
set param_card dim64f 12 -6.678 # orig: 5.5
set param_card dim64f 13 -3.189 # orig: 4.4
set param_card dim64f 14 11.188 # orig: 7.0
set param_card dim64f 16 -10.063 # orig: 5.4
set param_card dim64f 17 0.955 # orig: 7.0
</weight>
<weight id='EFTrwgt47_ctG_0.672_cQq83_10.633_cQq81_-10.436_cQu8_3.141_cQd8_5.015_ctq8_-11.403_ctu8_-4.418_ctd8_-1.92_cQq13_0.491_cQq11_-8.212_cQu1_-0.701_cQd1_-0.931_ctq1_5.075_ctu1_5.776_ctd1_-9.187'>set param_card dim62f 24 0.672 # orig: 0.7
set param_card dim64f 1 10.633 # orig: 9.0
set param_card dim64f 2 -10.436 # orig: 7.0
set param_card dim64f 3 3.141 # orig: 9.5
set param_card dim64f 4 -11.403 # orig: 7.0
set param_card dim64f 6 5.015 # orig: 12.0
set param_card dim64f 7 -4.418 # orig: 9.0
set param_card dim64f 8 -1.92 # orig: 12.4
set param_card dim64f 10 0.491 # orig: 4.1
set param_card dim64f 11 -8.212 # orig: 4.2
set param_card dim64f 12 -0.701 # orig: 5.5
set param_card dim64f 13 5.075 # orig: 4.4
set param_card dim64f 14 -0.931 # orig: 7.0
set param_card dim64f 16 5.776 # orig: 5.4
set param_card dim64f 17 -9.187 # orig: 7.0
</weight>
<weight id='EFTrwgt48_ctG_0.097_cQq83_-13.235_cQq81_3.083_cQu8_-6.992_cQd8_-21.927_ctq8_-1.972_ctu8_12.828_ctd8_-23.378_cQq13_1.548_cQq11_-7.292_cQu1_-7.809_cQd1_-3.663_ctq1_-0.091_ctu1_3.906_ctd1_0.689'>set param_card dim62f 24 0.097 # orig: 0.7
set param_card dim64f 1 -13.235 # orig: 9.0
set param_card dim64f 2 3.083 # orig: 7.0
set param_card dim64f 3 -6.992 # orig: 9.5
set param_card dim64f 4 -1.972 # orig: 7.0
set param_card dim64f 6 -21.927 # orig: 12.0
set param_card dim64f 7 12.828 # orig: 9.0
set param_card dim64f 8 -23.378 # orig: 12.4
set param_card dim64f 10 1.548 # orig: 4.1
set param_card dim64f 11 -7.292 # orig: 4.2
set param_card dim64f 12 -7.809 # orig: 5.5
set param_card dim64f 13 -0.091 # orig: 4.4
set param_card dim64f 14 -3.663 # orig: 7.0
set param_card dim64f 16 3.906 # orig: 5.4
set param_card dim64f 17 0.689 # orig: 7.0
</weight>
<weight id='EFTrwgt49_ctG_1.029_cQq83_-0.471_cQq81_-7.658_cQu8_-14.403_cQd8_16.435_ctq8_-10.202_ctu8_-12.269_ctd8_-13.394_cQq13_-1.09_cQq11_4.914_cQu1_-4.324_cQd1_0.827_ctq1_-4.544_ctu1_-0.962_ctd1_9.864'>set param_card dim62f 24 1.029 # orig: 0.7
set param_card dim64f 1 -0.471 # orig: 9.0
set param_card dim64f 2 -7.658 # orig: 7.0
set param_card dim64f 3 -14.403 # orig: 9.5
set param_card dim64f 4 -10.202 # orig: 7.0
set param_card dim64f 6 16.435 # orig: 12.0
set param_card dim64f 7 -12.269 # orig: 9.0
set param_card dim64f 8 -13.394 # orig: 12.4
set param_card dim64f 10 -1.09 # orig: 4.1
set param_card dim64f 11 4.914 # orig: 4.2
set param_card dim64f 12 -4.324 # orig: 5.5
set param_card dim64f 13 -4.544 # orig: 4.4
set param_card dim64f 14 0.827 # orig: 7.0
set param_card dim64f 16 -0.962 # orig: 5.4
set param_card dim64f 17 9.864 # orig: 7.0
</weight>
<weight id='EFTrwgt50_ctG_-0.665_cQq83_-14.242_cQq81_-8.115_cQu8_4.63_cQd8_10.452_ctq8_-13.832_ctu8_-13.909_ctd8_-10.071_cQq13_-2.706_cQq11_1.201_cQu1_0.148_cQd1_-0.781_ctq1_-6.102_ctu1_-6.349_ctd1_6.964'>set param_card dim62f 24 -0.665 # orig: 0.7
set param_card dim64f 1 -14.242 # orig: 9.0
set param_card dim64f 2 -8.115 # orig: 7.0
set param_card dim64f 3 4.63 # orig: 9.5
set param_card dim64f 4 -13.832 # orig: 7.0
set param_card dim64f 6 10.452 # orig: 12.0
set param_card dim64f 7 -13.909 # orig: 9.0
set param_card dim64f 8 -10.071 # orig: 12.4
set param_card dim64f 10 -2.706 # orig: 4.1
set param_card dim64f 11 1.201 # orig: 4.2
set param_card dim64f 12 0.148 # orig: 5.5
set param_card dim64f 13 -6.102 # orig: 4.4
set param_card dim64f 14 -0.781 # orig: 7.0
set param_card dim64f 16 -6.349 # orig: 5.4
set param_card dim64f 17 6.964 # orig: 7.0
</weight>
<weight id='EFTrwgt51_ctG_-0.787_cQq83_-15.261_cQq81_8.809_cQu8_-2.155_cQd8_-17.025_ctq8_-6.971_ctu8_10.751_ctd8_-10.297_cQq13_-0.617_cQq11_7.049_cQu1_-7.986_cQd1_-2.061_ctq1_0.449_ctu1_6.857_ctd1_-13.813'>set param_card dim62f 24 -0.787 # orig: 0.7
set param_card dim64f 1 -15.261 # orig: 9.0
set param_card dim64f 2 8.809 # orig: 7.0
set param_card dim64f 3 -2.155 # orig: 9.5
set param_card dim64f 4 -6.971 # orig: 7.0
set param_card dim64f 6 -17.025 # orig: 12.0
set param_card dim64f 7 10.751 # orig: 9.0
set param_card dim64f 8 -10.297 # orig: 12.4
set param_card dim64f 10 -0.617 # orig: 4.1
set param_card dim64f 11 7.049 # orig: 4.2
set param_card dim64f 12 -7.986 # orig: 5.5
set param_card dim64f 13 0.449 # orig: 4.4
set param_card dim64f 14 -2.061 # orig: 7.0
set param_card dim64f 16 6.857 # orig: 5.4
set param_card dim64f 17 -13.813 # orig: 7.0
</weight>
<weight id='EFTrwgt52_ctG_0.862_cQq83_17.48_cQq81_4.698_cQu8_8.08_cQd8_9.692_ctq8_3.485_ctu8_11.755_ctd8_-3.559_cQq13_6.645_cQq11_2.713_cQu1_-8.115_cQd1_8.608_ctq1_-6.273_ctu1_7.111_ctd1_5.866'>set param_card dim62f 24 0.862 # orig: 0.7
set param_card dim64f 1 17.48 # orig: 9.0
set param_card dim64f 2 4.698 # orig: 7.0
set param_card dim64f 3 8.08 # orig: 9.5
set param_card dim64f 4 3.485 # orig: 7.0
set param_card dim64f 6 9.692 # orig: 12.0
set param_card dim64f 7 11.755 # orig: 9.0
set param_card dim64f 8 -3.559 # orig: 12.4
set param_card dim64f 10 6.645 # orig: 4.1
set param_card dim64f 11 2.713 # orig: 4.2
set param_card dim64f 12 -8.115 # orig: 5.5
set param_card dim64f 13 -6.273 # orig: 4.4
set param_card dim64f 14 8.608 # orig: 7.0
set param_card dim64f 16 7.111 # orig: 5.4
set param_card dim64f 17 5.866 # orig: 7.0
</weight>
<weight id='EFTrwgt53_ctG_-0.903_cQq83_3.892_cQq81_-1.362_cQu8_-12.339_cQd8_-12.919_ctq8_2.258_ctu8_8.165_ctd8_16.95_cQq13_-4.352_cQq11_1.546_cQu1_7.695_cQd1_11.734_ctq1_2.3_ctu1_9.781_ctd1_1.838'>set param_card dim62f 24 -0.903 # orig: 0.7
set param_card dim64f 1 3.892 # orig: 9.0
set param_card dim64f 2 -1.362 # orig: 7.0
set param_card dim64f 3 -12.339 # orig: 9.5
set param_card dim64f 4 2.258 # orig: 7.0
set param_card dim64f 6 -12.919 # orig: 12.0
set param_card dim64f 7 8.165 # orig: 9.0
set param_card dim64f 8 16.95 # orig: 12.4
set param_card dim64f 10 -4.352 # orig: 4.1
set param_card dim64f 11 1.546 # orig: 4.2
set param_card dim64f 12 7.695 # orig: 5.5
set param_card dim64f 13 2.3 # orig: 4.4
set param_card dim64f 14 11.734 # orig: 7.0
set param_card dim64f 16 9.781 # orig: 5.4
set param_card dim64f 17 1.838 # orig: 7.0
</weight>
<weight id='EFTrwgt54_ctG_-0.522_cQq83_-0.949_cQq81_-0.037_cQu8_14.405_cQd8_-4.088_ctq8_-5.643_ctu8_8.684_ctd8_-21.06_cQq13_-6.966_cQq11_-5.093_cQu1_-4.897_cQd1_2.455_ctq1_-3.435_ctu1_3.57_ctd1_-7.932'>set param_card dim62f 24 -0.522 # orig: 0.7
set param_card dim64f 1 -0.949 # orig: 9.0
set param_card dim64f 2 -0.037 # orig: 7.0
set param_card dim64f 3 14.405 # orig: 9.5
set param_card dim64f 4 -5.643 # orig: 7.0
set param_card dim64f 6 -4.088 # orig: 12.0
set param_card dim64f 7 8.684 # orig: 9.0
set param_card dim64f 8 -21.06 # orig: 12.4
set param_card dim64f 10 -6.966 # orig: 4.1
set param_card dim64f 11 -5.093 # orig: 4.2
set param_card dim64f 12 -4.897 # orig: 5.5
set param_card dim64f 13 -3.435 # orig: 4.4
set param_card dim64f 14 2.455 # orig: 7.0
set param_card dim64f 16 3.57 # orig: 5.4
set param_card dim64f 17 -7.932 # orig: 7.0
</weight>
<weight id='EFTrwgt55_ctG_-0.222_cQq83_1.213_cQq81_10.848_cQu8_-14.188_cQd8_-19.129_ctq8_4.966_ctu8_6.833_ctd8_-10.208_cQq13_6.393_cQq11_2.922_cQu1_9.268_cQd1_9.372_ctq1_3.58_ctu1_5.027_ctd1_13.963'>set param_card dim62f 24 -0.222 # orig: 0.7
set param_card dim64f 1 1.213 # orig: 9.0
set param_card dim64f 2 10.848 # orig: 7.0
set param_card dim64f 3 -14.188 # orig: 9.5
set param_card dim64f 4 4.966 # orig: 7.0
set param_card dim64f 6 -19.129 # orig: 12.0
set param_card dim64f 7 6.833 # orig: 9.0
set param_card dim64f 8 -10.208 # orig: 12.4
set param_card dim64f 10 6.393 # orig: 4.1
set param_card dim64f 11 2.922 # orig: 4.2
set param_card dim64f 12 9.268 # orig: 5.5
set param_card dim64f 13 3.58 # orig: 4.4
set param_card dim64f 14 9.372 # orig: 7.0
set param_card dim64f 16 5.027 # orig: 5.4
set param_card dim64f 17 13.963 # orig: 7.0
</weight>
<weight id='EFTrwgt56_ctG_-0.064_cQq83_-13.896_cQq81_-9.146_cQu8_-12.936_cQd8_6.184_ctq8_-9.142_ctu8_7.671_ctd8_-23.063_cQq13_-5.638_cQq11_0.314_cQu1_3.549_cQd1_13.313_ctq1_7.463_ctu1_-2.827_ctd1_4.274'>set param_card dim62f 24 -0.064 # orig: 0.7
set param_card dim64f 1 -13.896 # orig: 9.0
set param_card dim64f 2 -9.146 # orig: 7.0
set param_card dim64f 3 -12.936 # orig: 9.5
set param_card dim64f 4 -9.142 # orig: 7.0
set param_card dim64f 6 6.184 # orig: 12.0
set param_card dim64f 7 7.671 # orig: 9.0
set param_card dim64f 8 -23.063 # orig: 12.4
set param_card dim64f 10 -5.638 # orig: 4.1
set param_card dim64f 11 0.314 # orig: 4.2
set param_card dim64f 12 3.549 # orig: 5.5
set param_card dim64f 13 7.463 # orig: 4.4
set param_card dim64f 14 13.313 # orig: 7.0
set param_card dim64f 16 -2.827 # orig: 5.4
set param_card dim64f 17 4.274 # orig: 7.0
</weight>
<weight id='EFTrwgt57_ctG_0.55_cQq83_-0.366_cQq81_13.131_cQu8_-11.082_cQd8_-6.326_ctq8_-1.457_ctu8_-10.801_ctd8_-1.042_cQq13_-6.705_cQq11_-3.081_cQu1_2.128_cQd1_13.722_ctq1_-3.878_ctu1_8.438_ctd1_-10.644'>set param_card dim62f 24 0.55 # orig: 0.7
set param_card dim64f 1 -0.366 # orig: 9.0
set param_card dim64f 2 13.131 # orig: 7.0
set param_card dim64f 3 -11.082 # orig: 9.5
set param_card dim64f 4 -1.457 # orig: 7.0
set param_card dim64f 6 -6.326 # orig: 12.0
set param_card dim64f 7 -10.801 # orig: 9.0
set param_card dim64f 8 -1.042 # orig: 12.4
set param_card dim64f 10 -6.705 # orig: 4.1
set param_card dim64f 11 -3.081 # orig: 4.2
set param_card dim64f 12 2.128 # orig: 5.5
set param_card dim64f 13 -3.878 # orig: 4.4
set param_card dim64f 14 13.722 # orig: 7.0
set param_card dim64f 16 8.438 # orig: 5.4
set param_card dim64f 17 -10.644 # orig: 7.0
</weight>
<weight id='EFTrwgt58_ctG_-0.739_cQq83_-1.927_cQq81_-4.498_cQu8_-7.655_cQd8_-12.724_ctq8_7.311_ctu8_0.6_ctd8_-24.282_cQq13_7.046_cQq11_-1.157_cQu1_2.74_cQd1_1.196_ctq1_0.456_ctu1_10.57_ctd1_6.47'>set param_card dim62f 24 -0.739 # orig: 0.7
set param_card dim64f 1 -1.927 # orig: 9.0
set param_card dim64f 2 -4.498 # orig: 7.0
set param_card dim64f 3 -7.655 # orig: 9.5
set param_card dim64f 4 7.311 # orig: 7.0
set param_card dim64f 6 -12.724 # orig: 12.0
set param_card dim64f 7 0.6 # orig: 9.0
set param_card dim64f 8 -24.282 # orig: 12.4
set param_card dim64f 10 7.046 # orig: 4.1
set param_card dim64f 11 -1.157 # orig: 4.2
set param_card dim64f 12 2.74 # orig: 5.5
set param_card dim64f 13 0.456 # orig: 4.4
set param_card dim64f 14 1.196 # orig: 7.0
set param_card dim64f 16 10.57 # orig: 5.4
set param_card dim64f 17 6.47 # orig: 7.0
</weight>
<weight id='EFTrwgt59_ctG_-0.809_cQq83_6.461_cQq81_5.164_cQu8_7.348_cQd8_-10.049_ctq8_-9.039_ctu8_11.156_ctd8_17.765_cQq13_2.406_cQq11_-3.454_cQu1_-8.251_cQd1_3.987_ctq1_-2.608_ctu1_-5.906_ctd1_-13.122'>set param_card dim62f 24 -0.809 # orig: 0.7
set param_card dim64f 1 6.461 # orig: 9.0
set param_card dim64f 2 5.164 # orig: 7.0
set param_card dim64f 3 7.348 # orig: 9.5
set param_card dim64f 4 -9.039 # orig: 7.0
set param_card dim64f 6 -10.049 # orig: 12.0
set param_card dim64f 7 11.156 # orig: 9.0
set param_card dim64f 8 17.765 # orig: 12.4
set param_card dim64f 10 2.406 # orig: 4.1
set param_card dim64f 11 -3.454 # orig: 4.2
set param_card dim64f 12 -8.251 # orig: 5.5
set param_card dim64f 13 -2.608 # orig: 4.4
set param_card dim64f 14 3.987 # orig: 7.0
set param_card dim64f 16 -5.906 # orig: 5.4
set param_card dim64f 17 -13.122 # orig: 7.0
</weight>
<weight id='EFTrwgt60_ctG_0.321_cQq83_5.49_cQq81_9.481_cQu8_6.2_cQd8_6.877_ctq8_-2.766_ctu8_2.591_ctd8_5.007_cQq13_4.948_cQq11_-5.846_cQu1_1.836_cQd1_2.37_ctq1_3.758_ctu1_-2.994_ctd1_-9.755'>set param_card dim62f 24 0.321 # orig: 0.7
set param_card dim64f 1 5.49 # orig: 9.0
set param_card dim64f 2 9.481 # orig: 7.0
set param_card dim64f 3 6.2 # orig: 9.5
set param_card dim64f 4 -2.766 # orig: 7.0
set param_card dim64f 6 6.877 # orig: 12.0
set param_card dim64f 7 2.591 # orig: 9.0
set param_card dim64f 8 5.007 # orig: 12.4
set param_card dim64f 10 4.948 # orig: 4.1
set param_card dim64f 11 -5.846 # orig: 4.2
set param_card dim64f 12 1.836 # orig: 5.5
set param_card dim64f 13 3.758 # orig: 4.4
set param_card dim64f 14 2.37 # orig: 7.0
set param_card dim64f 16 -2.994 # orig: 5.4
set param_card dim64f 17 -9.755 # orig: 7.0
</weight>
<weight id='EFTrwgt61_ctG_0.309_cQq83_13.504_cQq81_0.142_cQu8_15.303_cQd8_-11.281_ctq8_-13.865_ctu8_10.736_ctd8_-18.349_cQq13_0.658_cQq11_-2.407_cQu1_-8.659_cQd1_5.691_ctq1_0.834_ctu1_-7.918_ctd1_8.27'>set param_card dim62f 24 0.309 # orig: 0.7
set param_card dim64f 1 13.504 # orig: 9.0
set param_card dim64f 2 0.142 # orig: 7.0
set param_card dim64f 3 15.303 # orig: 9.5
set param_card dim64f 4 -13.865 # orig: 7.0
set param_card dim64f 6 -11.281 # orig: 12.0
set param_card dim64f 7 10.736 # orig: 9.0
set param_card dim64f 8 -18.349 # orig: 12.4
set param_card dim64f 10 0.658 # orig: 4.1
set param_card dim64f 11 -2.407 # orig: 4.2
set param_card dim64f 12 -8.659 # orig: 5.5
set param_card dim64f 13 0.834 # orig: 4.4
set param_card dim64f 14 5.691 # orig: 7.0
set param_card dim64f 16 -7.918 # orig: 5.4
set param_card dim64f 17 8.27 # orig: 7.0
</weight>
<weight id='EFTrwgt62_ctG_-0.755_cQq83_1.09_cQq81_-2.059_cQu8_14.895_cQd8_0.941_ctq8_-0.117_ctu8_-3.607_ctd8_-7.303_cQq13_2.029_cQq11_-6.951_cQu1_-7.372_cQd1_-8.246_ctq1_-0.626_ctu1_-0.403_ctd1_-6.554'>set param_card dim62f 24 -0.755 # orig: 0.7
set param_card dim64f 1 1.09 # orig: 9.0
set param_card dim64f 2 -2.059 # orig: 7.0
set param_card dim64f 3 14.895 # orig: 9.5
set param_card dim64f 4 -0.117 # orig: 7.0
set param_card dim64f 6 0.941 # orig: 12.0
set param_card dim64f 7 -3.607 # orig: 9.0
set param_card dim64f 8 -7.303 # orig: 12.4
set param_card dim64f 10 2.029 # orig: 4.1
set param_card dim64f 11 -6.951 # orig: 4.2
set param_card dim64f 12 -7.372 # orig: 5.5
set param_card dim64f 13 -0.626 # orig: 4.4
set param_card dim64f 14 -8.246 # orig: 7.0
set param_card dim64f 16 -0.403 # orig: 5.4
set param_card dim64f 17 -6.554 # orig: 7.0
</weight>
<weight id='EFTrwgt63_ctG_-1.189_cQq83_3.274_cQq81_5.97_cQu8_-8.688_cQd8_14.017_ctq8_2.273_ctu8_14.433_ctd8_-19.069_cQq13_-4.403_cQq11_3.367_cQu1_-4.681_cQd1_10.796_ctq1_-4.846_ctu1_1.054_ctd1_-13.006'>set param_card dim62f 24 -1.189 # orig: 0.7
set param_card dim64f 1 3.274 # orig: 9.0
set param_card dim64f 2 5.97 # orig: 7.0
set param_card dim64f 3 -8.688 # orig: 9.5
set param_card dim64f 4 2.273 # orig: 7.0
set param_card dim64f 6 14.017 # orig: 12.0
set param_card dim64f 7 14.433 # orig: 9.0
set param_card dim64f 8 -19.069 # orig: 12.4
set param_card dim64f 10 -4.403 # orig: 4.1
set param_card dim64f 11 3.367 # orig: 4.2
set param_card dim64f 12 -4.681 # orig: 5.5
set param_card dim64f 13 -4.846 # orig: 4.4
set param_card dim64f 14 10.796 # orig: 7.0
set param_card dim64f 16 1.054 # orig: 5.4
set param_card dim64f 17 -13.006 # orig: 7.0
</weight>
<weight id='EFTrwgt64_ctG_0.949_cQq83_12.237_cQq81_-2.266_cQu8_-10.878_cQd8_-7.642_ctq8_-6.632_ctu8_-5.91_ctd8_22.286_cQq13_-6.42_cQq11_-0.839_cQu1_-9.914_cQd1_11.165_ctq1_5.728_ctu1_-2.834_ctd1_-11.273'>set param_card dim62f 24 0.949 # orig: 0.7
set param_card dim64f 1 12.237 # orig: 9.0
set param_card dim64f 2 -2.266 # orig: 7.0
set param_card dim64f 3 -10.878 # orig: 9.5
set param_card dim64f 4 -6.632 # orig: 7.0
set param_card dim64f 6 -7.642 # orig: 12.0
set param_card dim64f 7 -5.91 # orig: 9.0
set param_card dim64f 8 22.286 # orig: 12.4
set param_card dim64f 10 -6.42 # orig: 4.1
set param_card dim64f 11 -0.839 # orig: 4.2
set param_card dim64f 12 -9.914 # orig: 5.5
set param_card dim64f 13 5.728 # orig: 4.4
set param_card dim64f 14 11.165 # orig: 7.0
set param_card dim64f 16 -2.834 # orig: 5.4
set param_card dim64f 17 -11.273 # orig: 7.0
</weight>
<weight id='EFTrwgt65_ctG_-1.077_cQq83_6.554_cQq81_-5.771_cQu8_-11.958_cQd8_-5.175_ctq8_6.893_ctu8_-15.271_ctd8_-11.605_cQq13_-2.625_cQq11_5.619_cQu1_-3.062_cQd1_8.844_ctq1_8.759_ctu1_7.743_ctd1_-9.404'>set param_card dim62f 24 -1.077 # orig: 0.7
set param_card dim64f 1 6.554 # orig: 9.0
set param_card dim64f 2 -5.771 # orig: 7.0
set param_card dim64f 3 -11.958 # orig: 9.5
set param_card dim64f 4 6.893 # orig: 7.0
set param_card dim64f 6 -5.175 # orig: 12.0
set param_card dim64f 7 -15.271 # orig: 9.0
set param_card dim64f 8 -11.605 # orig: 12.4
set param_card dim64f 10 -2.625 # orig: 4.1
set param_card dim64f 11 5.619 # orig: 4.2
set param_card dim64f 12 -3.062 # orig: 5.5
set param_card dim64f 13 8.759 # orig: 4.4
set param_card dim64f 14 8.844 # orig: 7.0
set param_card dim64f 16 7.743 # orig: 5.4
set param_card dim64f 17 -9.404 # orig: 7.0
</weight>
<weight id='EFTrwgt66_ctG_0.739_cQq83_-0.73_cQq81_-3.942_cQu8_0.197_cQd8_-20.568_ctq8_-3.855_ctu8_3.62_ctd8_-1.663_cQq13_1.279_cQq11_-5.868_cQu1_-1.596_cQd1_4.61_ctq1_-0.985_ctu1_5.278_ctd1_1.935'>set param_card dim62f 24 0.739 # orig: 0.7
set param_card dim64f 1 -0.73 # orig: 9.0
set param_card dim64f 2 -3.942 # orig: 7.0
set param_card dim64f 3 0.197 # orig: 9.5
set param_card dim64f 4 -3.855 # orig: 7.0
set param_card dim64f 6 -20.568 # orig: 12.0
set param_card dim64f 7 3.62 # orig: 9.0
set param_card dim64f 8 -1.663 # orig: 12.4
set param_card dim64f 10 1.279 # orig: 4.1
set param_card dim64f 11 -5.868 # orig: 4.2
set param_card dim64f 12 -1.596 # orig: 5.5
set param_card dim64f 13 -0.985 # orig: 4.4
set param_card dim64f 14 4.61 # orig: 7.0
set param_card dim64f 16 5.278 # orig: 5.4
set param_card dim64f 17 1.935 # orig: 7.0
</weight>
<weight id='EFTrwgt67_ctG_-1.144_cQq83_-9.411_cQq81_11.632_cQu8_13.794_cQd8_19.35_ctq8_-9.734_ctu8_17.462_ctd8_-9.013_cQq13_6.095_cQq11_1.653_cQu1_10.71_cQd1_-11.055_ctq1_7.571_ctu1_0.484_ctd1_-1.685'>set param_card dim62f 24 -1.144 # orig: 0.7
set param_card dim64f 1 -9.411 # orig: 9.0
set param_card dim64f 2 11.632 # orig: 7.0
set param_card dim64f 3 13.794 # orig: 9.5
set param_card dim64f 4 -9.734 # orig: 7.0
set param_card dim64f 6 19.35 # orig: 12.0
set param_card dim64f 7 17.462 # orig: 9.0
set param_card dim64f 8 -9.013 # orig: 12.4
set param_card dim64f 10 6.095 # orig: 4.1
set param_card dim64f 11 1.653 # orig: 4.2
set param_card dim64f 12 10.71 # orig: 5.5
set param_card dim64f 13 7.571 # orig: 4.4
set param_card dim64f 14 -11.055 # orig: 7.0
set param_card dim64f 16 0.484 # orig: 5.4
set param_card dim64f 17 -1.685 # orig: 7.0
</weight>
<weight id='EFTrwgt68_ctG_0.408_cQq83_3.73_cQq81_-12.673_cQu8_-15.054_cQd8_23.598_ctq8_0.269_ctu8_8.53_ctd8_-19.396_cQq13_1.648_cQq11_6.789_cQu1_-10.541_cQd1_-5.767_ctq1_-2.558_ctu1_-8.764_ctd1_1.857'>set param_card dim62f 24 0.408 # orig: 0.7
set param_card dim64f 1 3.73 # orig: 9.0
set param_card dim64f 2 -12.673 # orig: 7.0
set param_card dim64f 3 -15.054 # orig: 9.5
set param_card dim64f 4 0.269 # orig: 7.0
set param_card dim64f 6 23.598 # orig: 12.0
set param_card dim64f 7 8.53 # orig: 9.0
set param_card dim64f 8 -19.396 # orig: 12.4
set param_card dim64f 10 1.648 # orig: 4.1
set param_card dim64f 11 6.789 # orig: 4.2
set param_card dim64f 12 -10.541 # orig: 5.5
set param_card dim64f 13 -2.558 # orig: 4.4
set param_card dim64f 14 -5.767 # orig: 7.0
set param_card dim64f 16 -8.764 # orig: 5.4
set param_card dim64f 17 1.857 # orig: 7.0
</weight>
<weight id='EFTrwgt69_ctG_0.663_cQq83_-13.808_cQq81_11.681_cQu8_8.175_cQd8_23.585_ctq8_-6.295_ctu8_5.707_ctd8_-2.004_cQq13_2.652_cQq11_0.351_cQu1_-4.864_cQd1_13.53_ctq1_-5.642_ctu1_0.492_ctd1_8.029'>set param_card dim62f 24 0.663 # orig: 0.7
set param_card dim64f 1 -13.808 # orig: 9.0
set param_card dim64f 2 11.681 # orig: 7.0
set param_card dim64f 3 8.175 # orig: 9.5
set param_card dim64f 4 -6.295 # orig: 7.0
set param_card dim64f 6 23.585 # orig: 12.0
set param_card dim64f 7 5.707 # orig: 9.0
set param_card dim64f 8 -2.004 # orig: 12.4
set param_card dim64f 10 2.652 # orig: 4.1
set param_card dim64f 11 0.351 # orig: 4.2
set param_card dim64f 12 -4.864 # orig: 5.5
set param_card dim64f 13 -5.642 # orig: 4.4
set param_card dim64f 14 13.53 # orig: 7.0
set param_card dim64f 16 0.492 # orig: 5.4
set param_card dim64f 17 8.029 # orig: 7.0
</weight>
<weight id='EFTrwgt70_ctG_-0.454_cQq83_-0.455_cQq81_-2.236_cQu8_8.99_cQd8_14.139_ctq8_-10.102_ctu8_-6.093_ctd8_-2.425_cQq13_3.095_cQq11_-0.462_cQu1_-1.855_cQd1_11.152_ctq1_2.965_ctu1_0.951_ctd1_-6.03'>set param_card dim62f 24 -0.454 # orig: 0.7
set param_card dim64f 1 -0.455 # orig: 9.0
set param_card dim64f 2 -2.236 # orig: 7.0
set param_card dim64f 3 8.99 # orig: 9.5
set param_card dim64f 4 -10.102 # orig: 7.0
set param_card dim64f 6 14.139 # orig: 12.0
set param_card dim64f 7 -6.093 # orig: 9.0
set param_card dim64f 8 -2.425 # orig: 12.4
set param_card dim64f 10 3.095 # orig: 4.1
set param_card dim64f 11 -0.462 # orig: 4.2
set param_card dim64f 12 -1.855 # orig: 5.5
set param_card dim64f 13 2.965 # orig: 4.4
set param_card dim64f 14 11.152 # orig: 7.0
set param_card dim64f 16 0.951 # orig: 5.4
set param_card dim64f 17 -6.03 # orig: 7.0
</weight>
<weight id='EFTrwgt71_ctG_-0.477_cQq83_-16.758_cQq81_13.224_cQu8_13.232_cQd8_-5.763_ctq8_9.379_ctu8_-10.048_ctd8_-23.022_cQq13_4.391_cQq11_-6.178_cQu1_-8.099_cQd1_-8.009_ctq1_-1.03_ctu1_-2.674_ctd1_-1.681'>set param_card dim62f 24 -0.477 # orig: 0.7
set param_card dim64f 1 -16.758 # orig: 9.0
set param_card dim64f 2 13.224 # orig: 7.0
set param_card dim64f 3 13.232 # orig: 9.5
set param_card dim64f 4 9.379 # orig: 7.0
set param_card dim64f 6 -5.763 # orig: 12.0
set param_card dim64f 7 -10.048 # orig: 9.0
set param_card dim64f 8 -23.022 # orig: 12.4
set param_card dim64f 10 4.391 # orig: 4.1
set param_card dim64f 11 -6.178 # orig: 4.2
set param_card dim64f 12 -8.099 # orig: 5.5
set param_card dim64f 13 -1.03 # orig: 4.4
set param_card dim64f 14 -8.009 # orig: 7.0
set param_card dim64f 16 -2.674 # orig: 5.4
set param_card dim64f 17 -1.681 # orig: 7.0
</weight>
<weight id='EFTrwgt72_ctG_0.622_cQq83_2.696_cQq81_-10.207_cQu8_5.957_cQd8_7.886_ctq8_4.197_ctu8_8.121_ctd8_-20.035_cQq13_2.851_cQq11_-6.744_cQu1_-10.799_cQd1_2.202_ctq1_-7.508_ctu1_-1.701_ctd1_8.892'>set param_card dim62f 24 0.622 # orig: 0.7
set param_card dim64f 1 2.696 # orig: 9.0
set param_card dim64f 2 -10.207 # orig: 7.0
set param_card dim64f 3 5.957 # orig: 9.5
set param_card dim64f 4 4.197 # orig: 7.0
set param_card dim64f 6 7.886 # orig: 12.0
set param_card dim64f 7 8.121 # orig: 9.0
set param_card dim64f 8 -20.035 # orig: 12.4
set param_card dim64f 10 2.851 # orig: 4.1
set param_card dim64f 11 -6.744 # orig: 4.2
set param_card dim64f 12 -10.799 # orig: 5.5
set param_card dim64f 13 -7.508 # orig: 4.4
set param_card dim64f 14 2.202 # orig: 7.0
set param_card dim64f 16 -1.701 # orig: 5.4
set param_card dim64f 17 8.892 # orig: 7.0
</weight>
<weight id='EFTrwgt73_ctG_-0.493_cQq83_10.355_cQq81_1.302_cQu8_-9.783_cQd8_-15.531_ctq8_-10.402_ctu8_5.144_ctd8_6.559_cQq13_5.572_cQq11_-0.688_cQu1_-7.729_cQd1_4.564_ctq1_-4.037_ctu1_3.296_ctd1_-5.207'>set param_card dim62f 24 -0.493 # orig: 0.7
set param_card dim64f 1 10.355 # orig: 9.0
set param_card dim64f 2 1.302 # orig: 7.0
set param_card dim64f 3 -9.783 # orig: 9.5
set param_card dim64f 4 -10.402 # orig: 7.0
set param_card dim64f 6 -15.531 # orig: 12.0
set param_card dim64f 7 5.144 # orig: 9.0
set param_card dim64f 8 6.559 # orig: 12.4
set param_card dim64f 10 5.572 # orig: 4.1
set param_card dim64f 11 -0.688 # orig: 4.2
set param_card dim64f 12 -7.729 # orig: 5.5
set param_card dim64f 13 -4.037 # orig: 4.4
set param_card dim64f 14 4.564 # orig: 7.0
set param_card dim64f 16 3.296 # orig: 5.4
set param_card dim64f 17 -5.207 # orig: 7.0
</weight>
<weight id='EFTrwgt74_ctG_-1.313_cQq83_-14.474_cQq81_-0.652_cQu8_2.59_cQd8_16.401_ctq8_2.461_ctu8_-12.258_ctd8_-5.822_cQq13_6.708_cQq11_-5.017_cQu1_7.523_cQd1_10.388_ctq1_-3.975_ctu1_-5.142_ctd1_-12.623'>set param_card dim62f 24 -1.313 # orig: 0.7
set param_card dim64f 1 -14.474 # orig: 9.0
set param_card dim64f 2 -0.652 # orig: 7.0
set param_card dim64f 3 2.59 # orig: 9.5
set param_card dim64f 4 2.461 # orig: 7.0
set param_card dim64f 6 16.401 # orig: 12.0
set param_card dim64f 7 -12.258 # orig: 9.0
set param_card dim64f 8 -5.822 # orig: 12.4
set param_card dim64f 10 6.708 # orig: 4.1
set param_card dim64f 11 -5.017 # orig: 4.2
set param_card dim64f 12 7.523 # orig: 5.5
set param_card dim64f 13 -3.975 # orig: 4.4
set param_card dim64f 14 10.388 # orig: 7.0
set param_card dim64f 16 -5.142 # orig: 5.4
set param_card dim64f 17 -12.623 # orig: 7.0
</weight>
<weight id='EFTrwgt75_ctG_-0.166_cQq83_14.655_cQq81_-13.165_cQu8_13.182_cQd8_17.65_ctq8_8.035_ctu8_-7.41_ctd8_5.594_cQq13_-1.583_cQq11_4.47_cQu1_6.793_cQd1_9.148_ctq1_6.872_ctu1_4.564_ctd1_-3.17'>set param_card dim62f 24 -0.166 # orig: 0.7
set param_card dim64f 1 14.655 # orig: 9.0
set param_card dim64f 2 -13.165 # orig: 7.0
set param_card dim64f 3 13.182 # orig: 9.5
set param_card dim64f 4 8.035 # orig: 7.0
set param_card dim64f 6 17.65 # orig: 12.0
set param_card dim64f 7 -7.41 # orig: 9.0
set param_card dim64f 8 5.594 # orig: 12.4
set param_card dim64f 10 -1.583 # orig: 4.1
set param_card dim64f 11 4.47 # orig: 4.2
set param_card dim64f 12 6.793 # orig: 5.5
set param_card dim64f 13 6.872 # orig: 4.4
set param_card dim64f 14 9.148 # orig: 7.0
set param_card dim64f 16 4.564 # orig: 5.4
set param_card dim64f 17 -3.17 # orig: 7.0
</weight>
<weight id='EFTrwgt76_ctG_0.607_cQq83_-7.784_cQq81_0.889_cQu8_-5.808_cQd8_-18.52_ctq8_-10.702_ctu8_6.093_ctd8_5.795_cQq13_-4.86_cQq11_6.059_cQu1_5.977_cQd1_-3.82_ctq1_-0.432_ctu1_0.091_ctd1_12.704'>set param_card dim62f 24 0.607 # orig: 0.7
set param_card dim64f 1 -7.784 # orig: 9.0
set param_card dim64f 2 0.889 # orig: 7.0
set param_card dim64f 3 -5.808 # orig: 9.5
set param_card dim64f 4 -10.702 # orig: 7.0
set param_card dim64f 6 -18.52 # orig: 12.0
set param_card dim64f 7 6.093 # orig: 9.0
set param_card dim64f 8 5.795 # orig: 12.4
set param_card dim64f 10 -4.86 # orig: 4.1
set param_card dim64f 11 6.059 # orig: 4.2
set param_card dim64f 12 5.977 # orig: 5.5
set param_card dim64f 13 -0.432 # orig: 4.4
set param_card dim64f 14 -3.82 # orig: 7.0
set param_card dim64f 16 0.091 # orig: 5.4
set param_card dim64f 17 12.704 # orig: 7.0
</weight>
<weight id='EFTrwgt77_ctG_-0.008_cQq83_-13.549_cQq81_-2.371_cQu8_-17.548_cQd8_17.783_ctq8_-12.818_ctu8_-10.851_ctd8_-11.002_cQq13_-7.936_cQq11_-0.409_cQu1_4.737_cQd1_0.464_ctq1_-0.138_ctu1_-4.15_ctd1_2.286'>set param_card dim62f 24 -0.008 # orig: 0.7
set param_card dim64f 1 -13.549 # orig: 9.0
set param_card dim64f 2 -2.371 # orig: 7.0
set param_card dim64f 3 -17.548 # orig: 9.5
set param_card dim64f 4 -12.818 # orig: 7.0
set param_card dim64f 6 17.783 # orig: 12.0
set param_card dim64f 7 -10.851 # orig: 9.0
set param_card dim64f 8 -11.002 # orig: 12.4
set param_card dim64f 10 -7.936 # orig: 4.1
set param_card dim64f 11 -0.409 # orig: 4.2
set param_card dim64f 12 4.737 # orig: 5.5
set param_card dim64f 13 -0.138 # orig: 4.4
set param_card dim64f 14 0.464 # orig: 7.0
set param_card dim64f 16 -4.15 # orig: 5.4
set param_card dim64f 17 2.286 # orig: 7.0
</weight>
<weight id='EFTrwgt78_ctG_0.693_cQq83_-17.302_cQq81_-6.475_cQu8_7.814_cQd8_3.71_ctq8_7.916_ctu8_-4.439_ctd8_21.712_cQq13_-1.558_cQq11_5.054_cQu1_2.274_cQd1_7.748_ctq1_-4.741_ctu1_4.163_ctd1_-9.021'>set param_card dim62f 24 0.693 # orig: 0.7
set param_card dim64f 1 -17.302 # orig: 9.0
set param_card dim64f 2 -6.475 # orig: 7.0
set param_card dim64f 3 7.814 # orig: 9.5
set param_card dim64f 4 7.916 # orig: 7.0
set param_card dim64f 6 3.71 # orig: 12.0
set param_card dim64f 7 -4.439 # orig: 9.0
set param_card dim64f 8 21.712 # orig: 12.4
set param_card dim64f 10 -1.558 # orig: 4.1
set param_card dim64f 11 5.054 # orig: 4.2
set param_card dim64f 12 2.274 # orig: 5.5
set param_card dim64f 13 -4.741 # orig: 4.4
set param_card dim64f 14 7.748 # orig: 7.0
set param_card dim64f 16 4.163 # orig: 5.4
set param_card dim64f 17 -9.021 # orig: 7.0
</weight>
<weight id='EFTrwgt79_ctG_-1.245_cQq83_-11.588_cQq81_7.305_cQu8_-18.227_cQd8_-8.677_ctq8_11.343_ctu8_2.055_ctd8_-10.604_cQq13_4.361_cQq11_6.251_cQu1_4.537_cQd1_-0.734_ctq1_3.998_ctu1_-6.261_ctd1_-5.045'>set param_card dim62f 24 -1.245 # orig: 0.7
set param_card dim64f 1 -11.588 # orig: 9.0
set param_card dim64f 2 7.305 # orig: 7.0
set param_card dim64f 3 -18.227 # orig: 9.5
set param_card dim64f 4 11.343 # orig: 7.0
set param_card dim64f 6 -8.677 # orig: 12.0
set param_card dim64f 7 2.055 # orig: 9.0
set param_card dim64f 8 -10.604 # orig: 12.4
set param_card dim64f 10 4.361 # orig: 4.1
set param_card dim64f 11 6.251 # orig: 4.2
set param_card dim64f 12 4.537 # orig: 5.5
set param_card dim64f 13 3.998 # orig: 4.4
set param_card dim64f 14 -0.734 # orig: 7.0
set param_card dim64f 16 -6.261 # orig: 5.4
set param_card dim64f 17 -5.045 # orig: 7.0
</weight>
<weight id='EFTrwgt80_ctG_-0.18_cQq83_-10.265_cQq81_2.0_cQu8_-7.281_cQd8_10.418_ctq8_-8.392_ctu8_-11.821_ctd8_14.446_cQq13_4.32_cQq11_-7.909_cQu1_-1.266_cQd1_-1.485_ctq1_7.422_ctu1_-9.567_ctd1_-7.015'>set param_card dim62f 24 -0.18 # orig: 0.7
set param_card dim64f 1 -10.265 # orig: 9.0
set param_card dim64f 2 2.0 # orig: 7.0
set param_card dim64f 3 -7.281 # orig: 9.5
set param_card dim64f 4 -8.392 # orig: 7.0
set param_card dim64f 6 10.418 # orig: 12.0
set param_card dim64f 7 -11.821 # orig: 9.0
set param_card dim64f 8 14.446 # orig: 12.4
set param_card dim64f 10 4.32 # orig: 4.1
set param_card dim64f 11 -7.909 # orig: 4.2
set param_card dim64f 12 -1.266 # orig: 5.5
set param_card dim64f 13 7.422 # orig: 4.4
set param_card dim64f 14 -1.485 # orig: 7.0
set param_card dim64f 16 -9.567 # orig: 5.4
set param_card dim64f 17 -7.015 # orig: 7.0
</weight>
<weight id='EFTrwgt81_ctG_0.953_cQq83_-15.744_cQq81_-8.719_cQu8_4.233_cQd8_5.5_ctq8_9.427_ctu8_-3.148_ctd8_13.913_cQq13_7.844_cQq11_-2.685_cQu1_-10.526_cQd1_-11.474_ctq1_1.94_ctu1_-0.862_ctd1_-11.271'>set param_card dim62f 24 0.953 # orig: 0.7
set param_card dim64f 1 -15.744 # orig: 9.0
set param_card dim64f 2 -8.719 # orig: 7.0
set param_card dim64f 3 4.233 # orig: 9.5
set param_card dim64f 4 9.427 # orig: 7.0
set param_card dim64f 6 5.5 # orig: 12.0
set param_card dim64f 7 -3.148 # orig: 9.0
set param_card dim64f 8 13.913 # orig: 12.4
set param_card dim64f 10 7.844 # orig: 4.1
set param_card dim64f 11 -2.685 # orig: 4.2
set param_card dim64f 12 -10.526 # orig: 5.5
set param_card dim64f 13 1.94 # orig: 4.4
set param_card dim64f 14 -11.474 # orig: 7.0
set param_card dim64f 16 -0.862 # orig: 5.4
set param_card dim64f 17 -11.271 # orig: 7.0
</weight>
<weight id='EFTrwgt82_ctG_0.709_cQq83_-3.094_cQq81_5.584_cQu8_5.962_cQd8_-12.068_ctq8_7.256_ctu8_-14.777_ctd8_-14.389_cQq13_-4.278_cQq11_8.12_cQu1_0.179_cQd1_-1.651_ctq1_-8.145_ctu1_2.242_ctd1_-10.245'>set param_card dim62f 24 0.709 # orig: 0.7
set param_card dim64f 1 -3.094 # orig: 9.0
set param_card dim64f 2 5.584 # orig: 7.0
set param_card dim64f 3 5.962 # orig: 9.5
set param_card dim64f 4 7.256 # orig: 7.0
set param_card dim64f 6 -12.068 # orig: 12.0
set param_card dim64f 7 -14.777 # orig: 9.0
set param_card dim64f 8 -14.389 # orig: 12.4
set param_card dim64f 10 -4.278 # orig: 4.1
set param_card dim64f 11 8.12 # orig: 4.2
set param_card dim64f 12 0.179 # orig: 5.5
set param_card dim64f 13 -8.145 # orig: 4.4
set param_card dim64f 14 -1.651 # orig: 7.0
set param_card dim64f 16 2.242 # orig: 5.4
set param_card dim64f 17 -10.245 # orig: 7.0
</weight>
<weight id='EFTrwgt83_ctG_0.687_cQq83_-1.156_cQq81_3.18_cQu8_-3.335_cQd8_-0.404_ctq8_-5.778_ctu8_6.62_ctd8_-17.153_cQq13_-5.912_cQq11_5.654_cQu1_-1.269_cQd1_8.004_ctq1_-1.868_ctu1_0.845_ctd1_4.292'>set param_card dim62f 24 0.687 # orig: 0.7
set param_card dim64f 1 -1.156 # orig: 9.0
set param_card dim64f 2 3.18 # orig: 7.0
set param_card dim64f 3 -3.335 # orig: 9.5
set param_card dim64f 4 -5.778 # orig: 7.0
set param_card dim64f 6 -0.404 # orig: 12.0
set param_card dim64f 7 6.62 # orig: 9.0
set param_card dim64f 8 -17.153 # orig: 12.4
set param_card dim64f 10 -5.912 # orig: 4.1
set param_card dim64f 11 5.654 # orig: 4.2
set param_card dim64f 12 -1.269 # orig: 5.5
set param_card dim64f 13 -1.868 # orig: 4.4
set param_card dim64f 14 8.004 # orig: 7.0
set param_card dim64f 16 0.845 # orig: 5.4
set param_card dim64f 17 4.292 # orig: 7.0
</weight>
<weight id='EFTrwgt84_ctG_-0.183_cQq83_-0.308_cQq81_0.037_cQu8_14.309_cQd8_-5.805_ctq8_9.893_ctu8_-5.881_ctd8_-1.437_cQq13_-2.017_cQq11_-6.656_cQu1_-1.67_cQd1_-5.98_ctq1_-8.794_ctu1_2.683_ctd1_9.412'>set param_card dim62f 24 -0.183 # orig: 0.7
set param_card dim64f 1 -0.308 # orig: 9.0
set param_card dim64f 2 0.037 # orig: 7.0
set param_card dim64f 3 14.309 # orig: 9.5
set param_card dim64f 4 9.893 # orig: 7.0
set param_card dim64f 6 -5.805 # orig: 12.0
set param_card dim64f 7 -5.881 # orig: 9.0
set param_card dim64f 8 -1.437 # orig: 12.4
set param_card dim64f 10 -2.017 # orig: 4.1
set param_card dim64f 11 -6.656 # orig: 4.2
set param_card dim64f 12 -1.67 # orig: 5.5
set param_card dim64f 13 -8.794 # orig: 4.4
set param_card dim64f 14 -5.98 # orig: 7.0
set param_card dim64f 16 2.683 # orig: 5.4
set param_card dim64f 17 9.412 # orig: 7.0
</weight>
<weight id='EFTrwgt85_ctG_-0.942_cQq83_15.035_cQq81_13.373_cQu8_-5.07_cQd8_16.019_ctq8_-8.366_ctu8_14.649_ctd8_22.16_cQq13_-4.681_cQq11_6.562_cQu1_-1.143_cQd1_-10.901_ctq1_-6.626_ctu1_7.385_ctd1_-3.635'>set param_card dim62f 24 -0.942 # orig: 0.7
set param_card dim64f 1 15.035 # orig: 9.0
set param_card dim64f 2 13.373 # orig: 7.0
set param_card dim64f 3 -5.07 # orig: 9.5
set param_card dim64f 4 -8.366 # orig: 7.0
set param_card dim64f 6 16.019 # orig: 12.0
set param_card dim64f 7 14.649 # orig: 9.0
set param_card dim64f 8 22.16 # orig: 12.4
set param_card dim64f 10 -4.681 # orig: 4.1
set param_card dim64f 11 6.562 # orig: 4.2
set param_card dim64f 12 -1.143 # orig: 5.5
set param_card dim64f 13 -6.626 # orig: 4.4
set param_card dim64f 14 -10.901 # orig: 7.0
set param_card dim64f 16 7.385 # orig: 5.4
set param_card dim64f 17 -3.635 # orig: 7.0
</weight>
<weight id='EFTrwgt86_ctG_-0.142_cQq83_-2.994_cQq81_12.042_cQu8_8.306_cQd8_-8.182_ctq8_-12.155_ctu8_-0.571_ctd8_11.633_cQq13_-5.051_cQq11_1.519_cQu1_-1.733_cQd1_9.994_ctq1_-6.524_ctu1_4.94_ctd1_2.118'>set param_card dim62f 24 -0.142 # orig: 0.7
set param_card dim64f 1 -2.994 # orig: 9.0
set param_card dim64f 2 12.042 # orig: 7.0
set param_card dim64f 3 8.306 # orig: 9.5
set param_card dim64f 4 -12.155 # orig: 7.0
set param_card dim64f 6 -8.182 # orig: 12.0
set param_card dim64f 7 -0.571 # orig: 9.0
set param_card dim64f 8 11.633 # orig: 12.4
set param_card dim64f 10 -5.051 # orig: 4.1
set param_card dim64f 11 1.519 # orig: 4.2
set param_card dim64f 12 -1.733 # orig: 5.5
set param_card dim64f 13 -6.524 # orig: 4.4
set param_card dim64f 14 9.994 # orig: 7.0
set param_card dim64f 16 4.94 # orig: 5.4
set param_card dim64f 17 2.118 # orig: 7.0
</weight>
<weight id='EFTrwgt87_ctG_0.929_cQq83_16.258_cQq81_4.432_cQu8_11.37_cQd8_2.732_ctq8_-0.209_ctu8_11.238_ctd8_0.002_cQq13_-3.184_cQq11_5.425_cQu1_-3.268_cQd1_11.628_ctq1_2.342_ctu1_-8.392_ctd1_13.454'>set param_card dim62f 24 0.929 # orig: 0.7
set param_card dim64f 1 16.258 # orig: 9.0
set param_card dim64f 2 4.432 # orig: 7.0
set param_card dim64f 3 11.37 # orig: 9.5
set param_card dim64f 4 -0.209 # orig: 7.0
set param_card dim64f 6 2.732 # orig: 12.0
set param_card dim64f 7 11.238 # orig: 9.0
set param_card dim64f 8 0.002 # orig: 12.4
set param_card dim64f 10 -3.184 # orig: 4.1
set param_card dim64f 11 5.425 # orig: 4.2
set param_card dim64f 12 -3.268 # orig: 5.5
set param_card dim64f 13 2.342 # orig: 4.4
set param_card dim64f 14 11.628 # orig: 7.0
set param_card dim64f 16 -8.392 # orig: 5.4
set param_card dim64f 17 13.454 # orig: 7.0
</weight>
<weight id='EFTrwgt88_ctG_0.663_cQq83_-0.312_cQq81_4.634_cQu8_13.091_cQd8_20.152_ctq8_-11.08_ctu8_10.132_ctd8_8.016_cQq13_2.666_cQq11_-0.154_cQu1_10.589_cQd1_-1.792_ctq1_-0.235_ctu1_-1.608_ctd1_11.236'>set param_card dim62f 24 0.663 # orig: 0.7
set param_card dim64f 1 -0.312 # orig: 9.0
set param_card dim64f 2 4.634 # orig: 7.0
set param_card dim64f 3 13.091 # orig: 9.5
set param_card dim64f 4 -11.08 # orig: 7.0
set param_card dim64f 6 20.152 # orig: 12.0
set param_card dim64f 7 10.132 # orig: 9.0
set param_card dim64f 8 8.016 # orig: 12.4
set param_card dim64f 10 2.666 # orig: 4.1
set param_card dim64f 11 -0.154 # orig: 4.2
set param_card dim64f 12 10.589 # orig: 5.5
set param_card dim64f 13 -0.235 # orig: 4.4
set param_card dim64f 14 -1.792 # orig: 7.0
set param_card dim64f 16 -1.608 # orig: 5.4
set param_card dim64f 17 11.236 # orig: 7.0
</weight>
<weight id='EFTrwgt89_ctG_-0.7_cQq83_-8.489_cQq81_-4.248_cQu8_-16.694_cQd8_11.319_ctq8_10.136_ctu8_16.621_ctd8_-12.449_cQq13_5.869_cQq11_0.2_cQu1_7.255_cQd1_6.776_ctq1_-7.91_ctu1_7.893_ctd1_-13.519'>set param_card dim62f 24 -0.7 # orig: 0.7
set param_card dim64f 1 -8.489 # orig: 9.0
set param_card dim64f 2 -4.248 # orig: 7.0
set param_card dim64f 3 -16.694 # orig: 9.5
set param_card dim64f 4 10.136 # orig: 7.0
set param_card dim64f 6 11.319 # orig: 12.0
set param_card dim64f 7 16.621 # orig: 9.0
set param_card dim64f 8 -12.449 # orig: 12.4
set param_card dim64f 10 5.869 # orig: 4.1
set param_card dim64f 11 0.2 # orig: 4.2
set param_card dim64f 12 7.255 # orig: 5.5
set param_card dim64f 13 -7.91 # orig: 4.4
set param_card dim64f 14 6.776 # orig: 7.0
set param_card dim64f 16 7.893 # orig: 5.4
set param_card dim64f 17 -13.519 # orig: 7.0
</weight>
<weight id='EFTrwgt90_ctG_1.035_cQq83_-14.726_cQq81_-10.269_cQu8_8.762_cQd8_-16.804_ctq8_-12.281_ctu8_-9.071_ctd8_-18.776_cQq13_-0.931_cQq11_-5.226_cQu1_2.228_cQd1_0.749_ctq1_4.043_ctu1_-9.625_ctd1_12.055'>set param_card dim62f 24 1.035 # orig: 0.7
set param_card dim64f 1 -14.726 # orig: 9.0
set param_card dim64f 2 -10.269 # orig: 7.0
set param_card dim64f 3 8.762 # orig: 9.5
set param_card dim64f 4 -12.281 # orig: 7.0
set param_card dim64f 6 -16.804 # orig: 12.0
set param_card dim64f 7 -9.071 # orig: 9.0
set param_card dim64f 8 -18.776 # orig: 12.4
set param_card dim64f 10 -0.931 # orig: 4.1
set param_card dim64f 11 -5.226 # orig: 4.2
set param_card dim64f 12 2.228 # orig: 5.5
set param_card dim64f 13 4.043 # orig: 4.4
set param_card dim64f 14 0.749 # orig: 7.0
set param_card dim64f 16 -9.625 # orig: 5.4
set param_card dim64f 17 12.055 # orig: 7.0
</weight>
<weight id='EFTrwgt91_ctG_0.582_cQq83_7.693_cQq81_-11.295_cQu8_-2.266_cQd8_14.634_ctq8_4.883_ctu8_17.79_ctd8_11.844_cQq13_-6.479_cQq11_-4.102_cQu1_2.603_cQd1_-3.346_ctq1_-0.515_ctu1_-6.838_ctd1_-11.52'>set param_card dim62f 24 0.582 # orig: 0.7
set param_card dim64f 1 7.693 # orig: 9.0
set param_card dim64f 2 -11.295 # orig: 7.0
set param_card dim64f 3 -2.266 # orig: 9.5
set param_card dim64f 4 4.883 # orig: 7.0
set param_card dim64f 6 14.634 # orig: 12.0
set param_card dim64f 7 17.79 # orig: 9.0
set param_card dim64f 8 11.844 # orig: 12.4
set param_card dim64f 10 -6.479 # orig: 4.1
set param_card dim64f 11 -4.102 # orig: 4.2
set param_card dim64f 12 2.603 # orig: 5.5
set param_card dim64f 13 -0.515 # orig: 4.4
set param_card dim64f 14 -3.346 # orig: 7.0
set param_card dim64f 16 -6.838 # orig: 5.4
set param_card dim64f 17 -11.52 # orig: 7.0
</weight>
<weight id='EFTrwgt92_ctG_-1.029_cQq83_4.889_cQq81_-11.405_cQu8_13.309_cQd8_-14.979_ctq8_-5.195_ctu8_6.668_ctd8_-24.798_cQq13_5.441_cQq11_-0.506_cQu1_-0.753_cQd1_-13.543_ctq1_-8.67_ctu1_-7.915_ctd1_-0.334'>set param_card dim62f 24 -1.029 # orig: 0.7
set param_card dim64f 1 4.889 # orig: 9.0
set param_card dim64f 2 -11.405 # orig: 7.0
set param_card dim64f 3 13.309 # orig: 9.5
set param_card dim64f 4 -5.195 # orig: 7.0
set param_card dim64f 6 -14.979 # orig: 12.0
set param_card dim64f 7 6.668 # orig: 9.0
set param_card dim64f 8 -24.798 # orig: 12.4
set param_card dim64f 10 5.441 # orig: 4.1
set param_card dim64f 11 -0.506 # orig: 4.2
set param_card dim64f 12 -0.753 # orig: 5.5
set param_card dim64f 13 -8.67 # orig: 4.4
set param_card dim64f 14 -13.543 # orig: 7.0
set param_card dim64f 16 -7.915 # orig: 5.4
set param_card dim64f 17 -0.334 # orig: 7.0
</weight>
<weight id='EFTrwgt93_ctG_1.323_cQq83_-4.365_cQq81_-4.298_cQu8_7.237_cQd8_-13.74_ctq8_-0.526_ctu8_-16.032_ctd8_-23.867_cQq13_-2.711_cQq11_8.204_cQu1_-9.783_cQd1_-13.301_ctq1_5.357_ctu1_-4.585_ctd1_3.272'>set param_card dim62f 24 1.323 # orig: 0.7
set param_card dim64f 1 -4.365 # orig: 9.0
set param_card dim64f 2 -4.298 # orig: 7.0
set param_card dim64f 3 7.237 # orig: 9.5
set param_card dim64f 4 -0.526 # orig: 7.0
set param_card dim64f 6 -13.74 # orig: 12.0
set param_card dim64f 7 -16.032 # orig: 9.0
set param_card dim64f 8 -23.867 # orig: 12.4
set param_card dim64f 10 -2.711 # orig: 4.1
set param_card dim64f 11 8.204 # orig: 4.2
set param_card dim64f 12 -9.783 # orig: 5.5
set param_card dim64f 13 5.357 # orig: 4.4
set param_card dim64f 14 -13.301 # orig: 7.0
set param_card dim64f 16 -4.585 # orig: 5.4
set param_card dim64f 17 3.272 # orig: 7.0
</weight>
<weight id='EFTrwgt94_ctG_0.923_cQq83_-5.687_cQq81_-9.274_cQu8_-6.946_cQd8_-18.634_ctq8_-2.87_ctu8_-10.48_ctd8_20.825_cQq13_0.818_cQq11_7.594_cQu1_-2.651_cQd1_-8.209_ctq1_-4.375_ctu1_-0.453_ctd1_-11.307'>set param_card dim62f 24 0.923 # orig: 0.7
set param_card dim64f 1 -5.687 # orig: 9.0
set param_card dim64f 2 -9.274 # orig: 7.0
set param_card dim64f 3 -6.946 # orig: 9.5
set param_card dim64f 4 -2.87 # orig: 7.0
set param_card dim64f 6 -18.634 # orig: 12.0
set param_card dim64f 7 -10.48 # orig: 9.0
set param_card dim64f 8 20.825 # orig: 12.4
set param_card dim64f 10 0.818 # orig: 4.1
set param_card dim64f 11 7.594 # orig: 4.2
set param_card dim64f 12 -2.651 # orig: 5.5
set param_card dim64f 13 -4.375 # orig: 4.4
set param_card dim64f 14 -8.209 # orig: 7.0
set param_card dim64f 16 -0.453 # orig: 5.4
set param_card dim64f 17 -11.307 # orig: 7.0
</weight>
<weight id='EFTrwgt95_ctG_-0.353_cQq83_16.887_cQq81_4.599_cQu8_5.271_cQd8_15.7_ctq8_9.777_ctu8_16.081_ctd8_11.396_cQq13_-1.084_cQq11_-4.79_cQu1_-0.778_cQd1_12.085_ctq1_-5.567_ctu1_-7.961_ctd1_2.198'>set param_card dim62f 24 -0.353 # orig: 0.7
set param_card dim64f 1 16.887 # orig: 9.0
set param_card dim64f 2 4.599 # orig: 7.0
set param_card dim64f 3 5.271 # orig: 9.5
set param_card dim64f 4 9.777 # orig: 7.0
set param_card dim64f 6 15.7 # orig: 12.0
set param_card dim64f 7 16.081 # orig: 9.0
set param_card dim64f 8 11.396 # orig: 12.4
set param_card dim64f 10 -1.084 # orig: 4.1
set param_card dim64f 11 -4.79 # orig: 4.2
set param_card dim64f 12 -0.778 # orig: 5.5
set param_card dim64f 13 -5.567 # orig: 4.4
set param_card dim64f 14 12.085 # orig: 7.0
set param_card dim64f 16 -7.961 # orig: 5.4
set param_card dim64f 17 2.198 # orig: 7.0
</weight>
<weight id='EFTrwgt96_ctG_0.041_cQq83_-5.923_cQq81_-2.955_cQu8_4.903_cQd8_20.523_ctq8_-10.841_ctu8_-16.659_ctd8_-20.437_cQq13_-0.715_cQq11_3.365_cQu1_7.617_cQd1_-8.653_ctq1_-1.465_ctu1_-1.263_ctd1_-7.434'>set param_card dim62f 24 0.041 # orig: 0.7
set param_card dim64f 1 -5.923 # orig: 9.0
set param_card dim64f 2 -2.955 # orig: 7.0
set param_card dim64f 3 4.903 # orig: 9.5
set param_card dim64f 4 -10.841 # orig: 7.0
set param_card dim64f 6 20.523 # orig: 12.0
set param_card dim64f 7 -16.659 # orig: 9.0
set param_card dim64f 8 -20.437 # orig: 12.4
set param_card dim64f 10 -0.715 # orig: 4.1
set param_card dim64f 11 3.365 # orig: 4.2
set param_card dim64f 12 7.617 # orig: 5.5
set param_card dim64f 13 -1.465 # orig: 4.4
set param_card dim64f 14 -8.653 # orig: 7.0
set param_card dim64f 16 -1.263 # orig: 5.4
set param_card dim64f 17 -7.434 # orig: 7.0
</weight>
<weight id='EFTrwgt97_ctG_0.464_cQq83_6.456_cQq81_3.991_cQu8_-17.621_cQd8_21.05_ctq8_-3.045_ctu8_-1.74_ctd8_-0.321_cQq13_-0.503_cQq11_-7.685_cQu1_3.634_cQd1_-8.072_ctq1_-8.465_ctu1_4.741_ctd1_-8.716'>set param_card dim62f 24 0.464 # orig: 0.7
set param_card dim64f 1 6.456 # orig: 9.0
set param_card dim64f 2 3.991 # orig: 7.0
set param_card dim64f 3 -17.621 # orig: 9.5
set param_card dim64f 4 -3.045 # orig: 7.0
set param_card dim64f 6 21.05 # orig: 12.0
set param_card dim64f 7 -1.74 # orig: 9.0
set param_card dim64f 8 -0.321 # orig: 12.4
set param_card dim64f 10 -0.503 # orig: 4.1
set param_card dim64f 11 -7.685 # orig: 4.2
set param_card dim64f 12 3.634 # orig: 5.5
set param_card dim64f 13 -8.465 # orig: 4.4
set param_card dim64f 14 -8.072 # orig: 7.0
set param_card dim64f 16 4.741 # orig: 5.4
set param_card dim64f 17 -8.716 # orig: 7.0
</weight>
<weight id='EFTrwgt98_ctG_1.109_cQq83_-17.675_cQq81_-12.841_cQu8_-7.769_cQd8_-4.881_ctq8_8.767_ctu8_1.909_ctd8_-17.434_cQq13_5.514_cQq11_4.151_cQu1_-4.537_cQd1_10.377_ctq1_-0.495_ctu1_-9.214_ctd1_-2.18'>set param_card dim62f 24 1.109 # orig: 0.7
set param_card dim64f 1 -17.675 # orig: 9.0
set param_card dim64f 2 -12.841 # orig: 7.0
set param_card dim64f 3 -7.769 # orig: 9.5
set param_card dim64f 4 8.767 # orig: 7.0
set param_card dim64f 6 -4.881 # orig: 12.0
set param_card dim64f 7 1.909 # orig: 9.0
set param_card dim64f 8 -17.434 # orig: 12.4
set param_card dim64f 10 5.514 # orig: 4.1
set param_card dim64f 11 4.151 # orig: 4.2
set param_card dim64f 12 -4.537 # orig: 5.5
set param_card dim64f 13 -0.495 # orig: 4.4
set param_card dim64f 14 10.377 # orig: 7.0
set param_card dim64f 16 -9.214 # orig: 5.4
set param_card dim64f 17 -2.18 # orig: 7.0
</weight>
<weight id='EFTrwgt99_ctG_0.407_cQq83_-15.227_cQq81_3.076_cQu8_16.069_cQd8_-14.34_ctq8_-10.144_ctu8_-13.132_ctd8_6.768_cQq13_-2.495_cQq11_-6.097_cQu1_-9.127_cQd1_6.952_ctq1_6.568_ctu1_4.211_ctd1_13.935'>set param_card dim62f 24 0.407 # orig: 0.7
set param_card dim64f 1 -15.227 # orig: 9.0
set param_card dim64f 2 3.076 # orig: 7.0
set param_card dim64f 3 16.069 # orig: 9.5
set param_card dim64f 4 -10.144 # orig: 7.0
set param_card dim64f 6 -14.34 # orig: 12.0
set param_card dim64f 7 -13.132 # orig: 9.0
set param_card dim64f 8 6.768 # orig: 12.4
set param_card dim64f 10 -2.495 # orig: 4.1
set param_card dim64f 11 -6.097 # orig: 4.2
set param_card dim64f 12 -9.127 # orig: 5.5
set param_card dim64f 13 6.568 # orig: 4.4
set param_card dim64f 14 6.952 # orig: 7.0
set param_card dim64f 16 4.211 # orig: 5.4
set param_card dim64f 17 13.935 # orig: 7.0
</weight>
<weight id='EFTrwgt100_ctG_-0.701_cQq83_-0.048_cQq81_-13.163_cQu8_5.634_cQd8_10.956_ctq8_-0.744_ctu8_7.675_ctd8_11.807_cQq13_5.749_cQq11_-2.151_cQu1_8.431_cQd1_-6.532_ctq1_6.71_ctu1_1.894_ctd1_-1.052'>set param_card dim62f 24 -0.701 # orig: 0.7
set param_card dim64f 1 -0.048 # orig: 9.0
set param_card dim64f 2 -13.163 # orig: 7.0
set param_card dim64f 3 5.634 # orig: 9.5
set param_card dim64f 4 -0.744 # orig: 7.0
set param_card dim64f 6 10.956 # orig: 12.0
set param_card dim64f 7 7.675 # orig: 9.0
set param_card dim64f 8 11.807 # orig: 12.4
set param_card dim64f 10 5.749 # orig: 4.1
set param_card dim64f 11 -2.151 # orig: 4.2
set param_card dim64f 12 8.431 # orig: 5.5
set param_card dim64f 13 6.71 # orig: 4.4
set param_card dim64f 14 -6.532 # orig: 7.0
set param_card dim64f 16 1.894 # orig: 5.4
set param_card dim64f 17 -1.052 # orig: 7.0
</weight>
<weight id='EFTrwgt101_ctG_-0.35_cQq83_14.955_cQq81_13.247_cQu8_12.366_cQd8_-17.494_ctq8_13.947_ctu8_15.163_ctd8_24.316_cQq13_-3.799_cQq11_-3.202_cQu1_6.22_cQd1_12.06_ctq1_-5.011_ctu1_-3.243_ctd1_-4.236'>set param_card dim62f 24 -0.35 # orig: 0.7
set param_card dim64f 1 14.955 # orig: 9.0
set param_card dim64f 2 13.247 # orig: 7.0
set param_card dim64f 3 12.366 # orig: 9.5
set param_card dim64f 4 13.947 # orig: 7.0
set param_card dim64f 6 -17.494 # orig: 12.0
set param_card dim64f 7 15.163 # orig: 9.0
set param_card dim64f 8 24.316 # orig: 12.4
set param_card dim64f 10 -3.799 # orig: 4.1
set param_card dim64f 11 -3.202 # orig: 4.2
set param_card dim64f 12 6.22 # orig: 5.5
set param_card dim64f 13 -5.011 # orig: 4.4
set param_card dim64f 14 12.06 # orig: 7.0
set param_card dim64f 16 -3.243 # orig: 5.4
set param_card dim64f 17 -4.236 # orig: 7.0
</weight>
<weight id='EFTrwgt102_ctG_0.556_cQq83_-5.267_cQq81_-10.439_cQu8_2.364_cQd8_0.675_ctq8_-12.861_ctu8_-7.633_ctd8_-19.227_cQq13_7.964_cQq11_-4.314_cQu1_-5.928_cQd1_-4.03_ctq1_5.914_ctu1_5.907_ctd1_11.347'>set param_card dim62f 24 0.556 # orig: 0.7
set param_card dim64f 1 -5.267 # orig: 9.0
set param_card dim64f 2 -10.439 # orig: 7.0
set param_card dim64f 3 2.364 # orig: 9.5
set param_card dim64f 4 -12.861 # orig: 7.0
set param_card dim64f 6 0.675 # orig: 12.0
set param_card dim64f 7 -7.633 # orig: 9.0
set param_card dim64f 8 -19.227 # orig: 12.4
set param_card dim64f 10 7.964 # orig: 4.1
set param_card dim64f 11 -4.314 # orig: 4.2
set param_card dim64f 12 -5.928 # orig: 5.5
set param_card dim64f 13 5.914 # orig: 4.4
set param_card dim64f 14 -4.03 # orig: 7.0
set param_card dim64f 16 5.907 # orig: 5.4
set param_card dim64f 17 11.347 # orig: 7.0
</weight>
<weight id='EFTrwgt103_ctG_0.125_cQq83_-12.646_cQq81_10.46_cQu8_18.952_cQd8_-13.688_ctq8_-9.243_ctu8_-14.143_ctd8_-9.888_cQq13_-8.119_cQq11_3.122_cQu1_8.657_cQd1_7.658_ctq1_-7.962_ctu1_3.664_ctd1_-2.552'>set param_card dim62f 24 0.125 # orig: 0.7
set param_card dim64f 1 -12.646 # orig: 9.0
set param_card dim64f 2 10.46 # orig: 7.0
set param_card dim64f 3 18.952 # orig: 9.5
set param_card dim64f 4 -9.243 # orig: 7.0
set param_card dim64f 6 -13.688 # orig: 12.0
set param_card dim64f 7 -14.143 # orig: 9.0
set param_card dim64f 8 -9.888 # orig: 12.4
set param_card dim64f 10 -8.119 # orig: 4.1
set param_card dim64f 11 3.122 # orig: 4.2
set param_card dim64f 12 8.657 # orig: 5.5
set param_card dim64f 13 -7.962 # orig: 4.4
set param_card dim64f 14 7.658 # orig: 7.0
set param_card dim64f 16 3.664 # orig: 5.4
set param_card dim64f 17 -2.552 # orig: 7.0
</weight>
<weight id='EFTrwgt104_ctG_-0.763_cQq83_-3.804_cQq81_11.607_cQu8_-13.419_cQd8_14.176_ctq8_-9.066_ctu8_-15.02_ctd8_-4.358_cQq13_-1.193_cQq11_-6.481_cQu1_4.998_cQd1_-9.789_ctq1_1.777_ctu1_10.322_ctd1_2.64'>set param_card dim62f 24 -0.763 # orig: 0.7
set param_card dim64f 1 -3.804 # orig: 9.0
set param_card dim64f 2 11.607 # orig: 7.0
set param_card dim64f 3 -13.419 # orig: 9.5
set param_card dim64f 4 -9.066 # orig: 7.0
set param_card dim64f 6 14.176 # orig: 12.0
set param_card dim64f 7 -15.02 # orig: 9.0
set param_card dim64f 8 -4.358 # orig: 12.4
set param_card dim64f 10 -1.193 # orig: 4.1
set param_card dim64f 11 -6.481 # orig: 4.2
set param_card dim64f 12 4.998 # orig: 5.5
set param_card dim64f 13 1.777 # orig: 4.4
set param_card dim64f 14 -9.789 # orig: 7.0
set param_card dim64f 16 10.322 # orig: 5.4
set param_card dim64f 17 2.64 # orig: 7.0
</weight>
<weight id='EFTrwgt105_ctG_-1.088_cQq83_12.665_cQq81_-11.087_cQu8_18.548_cQd8_-4.797_ctq8_-2.92_ctu8_2.89_ctd8_13.714_cQq13_6.529_cQq11_2.903_cQu1_9.448_cQd1_-11.012_ctq1_-0.553_ctu1_-10.792_ctd1_7.312'>set param_card dim62f 24 -1.088 # orig: 0.7
set param_card dim64f 1 12.665 # orig: 9.0
set param_card dim64f 2 -11.087 # orig: 7.0
set param_card dim64f 3 18.548 # orig: 9.5
set param_card dim64f 4 -2.92 # orig: 7.0
set param_card dim64f 6 -4.797 # orig: 12.0
set param_card dim64f 7 2.89 # orig: 9.0
set param_card dim64f 8 13.714 # orig: 12.4
set param_card dim64f 10 6.529 # orig: 4.1
set param_card dim64f 11 2.903 # orig: 4.2
set param_card dim64f 12 9.448 # orig: 5.5
set param_card dim64f 13 -0.553 # orig: 4.4
set param_card dim64f 14 -11.012 # orig: 7.0
set param_card dim64f 16 -10.792 # orig: 5.4
set param_card dim64f 17 7.312 # orig: 7.0
</weight>
<weight id='EFTrwgt106_ctG_-0.66_cQq83_13.87_cQq81_-10.837_cQu8_-12.598_cQd8_7.858_ctq8_-12.118_ctu8_-7.151_ctd8_16.078_cQq13_4.226_cQq11_0.29_cQu1_-10.828_cQd1_12.788_ctq1_7.2_ctu1_2.803_ctd1_-12.185'>set param_card dim62f 24 -0.66 # orig: 0.7
set param_card dim64f 1 13.87 # orig: 9.0
set param_card dim64f 2 -10.837 # orig: 7.0
set param_card dim64f 3 -12.598 # orig: 9.5
set param_card dim64f 4 -12.118 # orig: 7.0
set param_card dim64f 6 7.858 # orig: 12.0
set param_card dim64f 7 -7.151 # orig: 9.0
set param_card dim64f 8 16.078 # orig: 12.4
set param_card dim64f 10 4.226 # orig: 4.1
set param_card dim64f 11 0.29 # orig: 4.2
set param_card dim64f 12 -10.828 # orig: 5.5
set param_card dim64f 13 7.2 # orig: 4.4
set param_card dim64f 14 12.788 # orig: 7.0
set param_card dim64f 16 2.803 # orig: 5.4
set param_card dim64f 17 -12.185 # orig: 7.0
</weight>
<weight id='EFTrwgt107_ctG_0.987_cQq83_4.124_cQq81_-7.722_cQu8_-17.904_cQd8_-9.465_ctq8_-8.335_ctu8_11.217_ctd8_22.691_cQq13_-5.276_cQq11_2.989_cQu1_7.593_cQd1_-5.045_ctq1_1.607_ctu1_3.552_ctd1_13.817'>set param_card dim62f 24 0.987 # orig: 0.7
set param_card dim64f 1 4.124 # orig: 9.0
set param_card dim64f 2 -7.722 # orig: 7.0
set param_card dim64f 3 -17.904 # orig: 9.5
set param_card dim64f 4 -8.335 # orig: 7.0
set param_card dim64f 6 -9.465 # orig: 12.0
set param_card dim64f 7 11.217 # orig: 9.0
set param_card dim64f 8 22.691 # orig: 12.4
set param_card dim64f 10 -5.276 # orig: 4.1
set param_card dim64f 11 2.989 # orig: 4.2
set param_card dim64f 12 7.593 # orig: 5.5
set param_card dim64f 13 1.607 # orig: 4.4
set param_card dim64f 14 -5.045 # orig: 7.0
set param_card dim64f 16 3.552 # orig: 5.4
set param_card dim64f 17 13.817 # orig: 7.0
</weight>
<weight id='EFTrwgt108_ctG_-0.161_cQq83_-2.662_cQq81_-3.151_cQu8_9.405_cQd8_-12.787_ctq8_6.797_ctu8_12.29_ctd8_-20.381_cQq13_6.286_cQq11_-1.665_cQu1_-10.66_cQd1_13.551_ctq1_-0.592_ctu1_-10.77_ctd1_-11.103'>set param_card dim62f 24 -0.161 # orig: 0.7
set param_card dim64f 1 -2.662 # orig: 9.0
set param_card dim64f 2 -3.151 # orig: 7.0
set param_card dim64f 3 9.405 # orig: 9.5
set param_card dim64f 4 6.797 # orig: 7.0
set param_card dim64f 6 -12.787 # orig: 12.0
set param_card dim64f 7 12.29 # orig: 9.0
set param_card dim64f 8 -20.381 # orig: 12.4
set param_card dim64f 10 6.286 # orig: 4.1
set param_card dim64f 11 -1.665 # orig: 4.2
set param_card dim64f 12 -10.66 # orig: 5.5
set param_card dim64f 13 -0.592 # orig: 4.4
set param_card dim64f 14 13.551 # orig: 7.0
set param_card dim64f 16 -10.77 # orig: 5.4
set param_card dim64f 17 -11.103 # orig: 7.0
</weight>
<weight id='EFTrwgt109_ctG_-0.866_cQq83_17.321_cQq81_-1.402_cQu8_15.303_cQd8_-9.712_ctq8_-2.135_ctu8_4.236_ctd8_-2.625_cQq13_6.154_cQq11_-5.703_cQu1_2.095_cQd1_6.678_ctq1_-8.391_ctu1_-3.925_ctd1_1.624'>set param_card dim62f 24 -0.866 # orig: 0.7
set param_card dim64f 1 17.321 # orig: 9.0
set param_card dim64f 2 -1.402 # orig: 7.0
set param_card dim64f 3 15.303 # orig: 9.5
set param_card dim64f 4 -2.135 # orig: 7.0
set param_card dim64f 6 -9.712 # orig: 12.0
set param_card dim64f 7 4.236 # orig: 9.0
set param_card dim64f 8 -2.625 # orig: 12.4
set param_card dim64f 10 6.154 # orig: 4.1
set param_card dim64f 11 -5.703 # orig: 4.2
set param_card dim64f 12 2.095 # orig: 5.5
set param_card dim64f 13 -8.391 # orig: 4.4
set param_card dim64f 14 6.678 # orig: 7.0
set param_card dim64f 16 -3.925 # orig: 5.4
set param_card dim64f 17 1.624 # orig: 7.0
</weight>
<weight id='EFTrwgt110_ctG_0.155_cQq83_-16.958_cQq81_-11.926_cQu8_-4.429_cQd8_12.271_ctq8_12.349_ctu8_9.754_ctd8_-5.943_cQq13_1.387_cQq11_-2.925_cQu1_8.241_cQd1_-0.988_ctq1_8.274_ctu1_-10.609_ctd1_-7.304'>set param_card dim62f 24 0.155 # orig: 0.7
set param_card dim64f 1 -16.958 # orig: 9.0
set param_card dim64f 2 -11.926 # orig: 7.0
set param_card dim64f 3 -4.429 # orig: 9.5
set param_card dim64f 4 12.349 # orig: 7.0
set param_card dim64f 6 12.271 # orig: 12.0
set param_card dim64f 7 9.754 # orig: 9.0
set param_card dim64f 8 -5.943 # orig: 12.4
set param_card dim64f 10 1.387 # orig: 4.1
set param_card dim64f 11 -2.925 # orig: 4.2
set param_card dim64f 12 8.241 # orig: 5.5
set param_card dim64f 13 8.274 # orig: 4.4
set param_card dim64f 14 -0.988 # orig: 7.0
set param_card dim64f 16 -10.609 # orig: 5.4
set param_card dim64f 17 -7.304 # orig: 7.0
</weight>
<weight id='EFTrwgt111_ctG_-1.065_cQq83_14.73_cQq81_-1.172_cQu8_-15.353_cQd8_0.237_ctq8_10.108_ctu8_4.492_ctd8_24.01_cQq13_-1.328_cQq11_0.667_cQu1_-2.509_cQd1_0.719_ctq1_0.384_ctu1_-8.496_ctd1_-3.168'>set param_card dim62f 24 -1.065 # orig: 0.7
set param_card dim64f 1 14.73 # orig: 9.0
set param_card dim64f 2 -1.172 # orig: 7.0
set param_card dim64f 3 -15.353 # orig: 9.5
set param_card dim64f 4 10.108 # orig: 7.0
set param_card dim64f 6 0.237 # orig: 12.0
set param_card dim64f 7 4.492 # orig: 9.0
set param_card dim64f 8 24.01 # orig: 12.4
set param_card dim64f 10 -1.328 # orig: 4.1
set param_card dim64f 11 0.667 # orig: 4.2
set param_card dim64f 12 -2.509 # orig: 5.5
set param_card dim64f 13 0.384 # orig: 4.4
set param_card dim64f 14 0.719 # orig: 7.0
set param_card dim64f 16 -8.496 # orig: 5.4
set param_card dim64f 17 -3.168 # orig: 7.0
</weight>
<weight id='EFTrwgt112_ctG_0.963_cQq83_-9.182_cQq81_0.049_cQu8_8.605_cQd8_-14.263_ctq8_8.142_ctu8_-8.43_ctd8_-11.958_cQq13_-2.649_cQq11_1.046_cQu1_6.616_cQd1_7.998_ctq1_1.189_ctu1_-6.255_ctd1_6.95'>set param_card dim62f 24 0.963 # orig: 0.7
set param_card dim64f 1 -9.182 # orig: 9.0
set param_card dim64f 2 0.049 # orig: 7.0
set param_card dim64f 3 8.605 # orig: 9.5
set param_card dim64f 4 8.142 # orig: 7.0
set param_card dim64f 6 -14.263 # orig: 12.0
set param_card dim64f 7 -8.43 # orig: 9.0
set param_card dim64f 8 -11.958 # orig: 12.4
set param_card dim64f 10 -2.649 # orig: 4.1
set param_card dim64f 11 1.046 # orig: 4.2
set param_card dim64f 12 6.616 # orig: 5.5
set param_card dim64f 13 1.189 # orig: 4.4
set param_card dim64f 14 7.998 # orig: 7.0
set param_card dim64f 16 -6.255 # orig: 5.4
set param_card dim64f 17 6.95 # orig: 7.0
</weight>
<weight id='EFTrwgt113_ctG_1.026_cQq83_-11.499_cQq81_-5.535_cQu8_17.173_cQd8_3.883_ctq8_-9.651_ctu8_-11.427_ctd8_18.837_cQq13_6.015_cQq11_6.509_cQu1_10.344_cQd1_-2.658_ctq1_-2.985_ctu1_-3.104_ctd1_9.041'>set param_card dim62f 24 1.026 # orig: 0.7
set param_card dim64f 1 -11.499 # orig: 9.0
set param_card dim64f 2 -5.535 # orig: 7.0
set param_card dim64f 3 17.173 # orig: 9.5
set param_card dim64f 4 -9.651 # orig: 7.0
set param_card dim64f 6 3.883 # orig: 12.0
set param_card dim64f 7 -11.427 # orig: 9.0
set param_card dim64f 8 18.837 # orig: 12.4
set param_card dim64f 10 6.015 # orig: 4.1
set param_card dim64f 11 6.509 # orig: 4.2
set param_card dim64f 12 10.344 # orig: 5.5
set param_card dim64f 13 -2.985 # orig: 4.4
set param_card dim64f 14 -2.658 # orig: 7.0
set param_card dim64f 16 -3.104 # orig: 5.4
set param_card dim64f 17 9.041 # orig: 7.0
</weight>
<weight id='EFTrwgt114_ctG_1.167_cQq83_14.15_cQq81_-2.248_cQu8_-3.57_cQd8_15.163_ctq8_-12.657_ctu8_5.129_ctd8_6.614_cQq13_-6.863_cQq11_-3.391_cQu1_-0.777_cQd1_-2.994_ctq1_1.952_ctu1_-7.447_ctd1_11.847'>set param_card dim62f 24 1.167 # orig: 0.7
set param_card dim64f 1 14.15 # orig: 9.0
set param_card dim64f 2 -2.248 # orig: 7.0
set param_card dim64f 3 -3.57 # orig: 9.5
set param_card dim64f 4 -12.657 # orig: 7.0
set param_card dim64f 6 15.163 # orig: 12.0
set param_card dim64f 7 5.129 # orig: 9.0
set param_card dim64f 8 6.614 # orig: 12.4
set param_card dim64f 10 -6.863 # orig: 4.1
set param_card dim64f 11 -3.391 # orig: 4.2
set param_card dim64f 12 -0.777 # orig: 5.5
set param_card dim64f 13 1.952 # orig: 4.4
set param_card dim64f 14 -2.994 # orig: 7.0
set param_card dim64f 16 -7.447 # orig: 5.4
set param_card dim64f 17 11.847 # orig: 7.0
</weight>
<weight id='EFTrwgt115_ctG_0.982_cQq83_-16.13_cQq81_-2.864_cQu8_-3.251_cQd8_13.648_ctq8_-3.377_ctu8_-15.255_ctd8_-20.505_cQq13_6.864_cQq11_6.065_cQu1_1.403_cQd1_13.412_ctq1_6.891_ctu1_-5.305_ctd1_6.959'>set param_card dim62f 24 0.982 # orig: 0.7
set param_card dim64f 1 -16.13 # orig: 9.0
set param_card dim64f 2 -2.864 # orig: 7.0
set param_card dim64f 3 -3.251 # orig: 9.5
set param_card dim64f 4 -3.377 # orig: 7.0
set param_card dim64f 6 13.648 # orig: 12.0
set param_card dim64f 7 -15.255 # orig: 9.0
set param_card dim64f 8 -20.505 # orig: 12.4
set param_card dim64f 10 6.864 # orig: 4.1
set param_card dim64f 11 6.065 # orig: 4.2
set param_card dim64f 12 1.403 # orig: 5.5
set param_card dim64f 13 6.891 # orig: 4.4
set param_card dim64f 14 13.412 # orig: 7.0
set param_card dim64f 16 -5.305 # orig: 5.4
set param_card dim64f 17 6.959 # orig: 7.0
</weight>
<weight id='EFTrwgt116_ctG_0.484_cQq83_-5.877_cQq81_-0.844_cQu8_-8.226_cQd8_-12.543_ctq8_-7.938_ctu8_-14.308_ctd8_-16.759_cQq13_3.295_cQq11_-4.935_cQu1_1.553_cQd1_-2.747_ctq1_1.896_ctu1_-2.598_ctd1_1.468'>set param_card dim62f 24 0.484 # orig: 0.7
set param_card dim64f 1 -5.877 # orig: 9.0
set param_card dim64f 2 -0.844 # orig: 7.0
set param_card dim64f 3 -8.226 # orig: 9.5
set param_card dim64f 4 -7.938 # orig: 7.0
set param_card dim64f 6 -12.543 # orig: 12.0
set param_card dim64f 7 -14.308 # orig: 9.0
set param_card dim64f 8 -16.759 # orig: 12.4
set param_card dim64f 10 3.295 # orig: 4.1
set param_card dim64f 11 -4.935 # orig: 4.2
set param_card dim64f 12 1.553 # orig: 5.5
set param_card dim64f 13 1.896 # orig: 4.4
set param_card dim64f 14 -2.747 # orig: 7.0
set param_card dim64f 16 -2.598 # orig: 5.4
set param_card dim64f 17 1.468 # orig: 7.0
</weight>
<weight id='EFTrwgt117_ctG_-0.766_cQq83_13.005_cQq81_4.278_cQu8_-5.789_cQd8_-2.642_ctq8_1.928_ctu8_-17.627_ctd8_13.206_cQq13_-3.352_cQq11_-4.623_cQu1_1.281_cQd1_-0.353_ctq1_-7.888_ctu1_-2.739_ctd1_-3.691'>set param_card dim62f 24 -0.766 # orig: 0.7
set param_card dim64f 1 13.005 # orig: 9.0
set param_card dim64f 2 4.278 # orig: 7.0
set param_card dim64f 3 -5.789 # orig: 9.5
set param_card dim64f 4 1.928 # orig: 7.0
set param_card dim64f 6 -2.642 # orig: 12.0
set param_card dim64f 7 -17.627 # orig: 9.0
set param_card dim64f 8 13.206 # orig: 12.4
set param_card dim64f 10 -3.352 # orig: 4.1
set param_card dim64f 11 -4.623 # orig: 4.2
set param_card dim64f 12 1.281 # orig: 5.5
set param_card dim64f 13 -7.888 # orig: 4.4
set param_card dim64f 14 -0.353 # orig: 7.0
set param_card dim64f 16 -2.739 # orig: 5.4
set param_card dim64f 17 -3.691 # orig: 7.0
</weight>
<weight id='EFTrwgt118_ctG_-0.026_cQq83_16.863_cQq81_-3.657_cQu8_-14.653_cQd8_19.452_ctq8_-11.093_ctu8_7.169_ctd8_12.713_cQq13_2.219_cQq11_6.829_cQu1_-1.47_cQd1_13.329_ctq1_-8.726_ctu1_4.506_ctd1_-6.731'>set param_card dim62f 24 -0.026 # orig: 0.7
set param_card dim64f 1 16.863 # orig: 9.0
set param_card dim64f 2 -3.657 # orig: 7.0
set param_card dim64f 3 -14.653 # orig: 9.5
set param_card dim64f 4 -11.093 # orig: 7.0
set param_card dim64f 6 19.452 # orig: 12.0
set param_card dim64f 7 7.169 # orig: 9.0
set param_card dim64f 8 12.713 # orig: 12.4
set param_card dim64f 10 2.219 # orig: 4.1
set param_card dim64f 11 6.829 # orig: 4.2
set param_card dim64f 12 -1.47 # orig: 5.5
set param_card dim64f 13 -8.726 # orig: 4.4
set param_card dim64f 14 13.329 # orig: 7.0
set param_card dim64f 16 4.506 # orig: 5.4
set param_card dim64f 17 -6.731 # orig: 7.0
</weight>
<weight id='EFTrwgt119_ctG_-0.927_cQq83_14.324_cQq81_12.494_cQu8_-15.766_cQd8_-22.63_ctq8_7.771_ctu8_17.012_ctd8_-4.27_cQq13_-4.263_cQq11_7.096_cQu1_5.583_cQd1_7.465_ctq1_3.841_ctu1_9.204_ctd1_12.312'>set param_card dim62f 24 -0.927 # orig: 0.7
set param_card dim64f 1 14.324 # orig: 9.0
set param_card dim64f 2 12.494 # orig: 7.0
set param_card dim64f 3 -15.766 # orig: 9.5
set param_card dim64f 4 7.771 # orig: 7.0
set param_card dim64f 6 -22.63 # orig: 12.0
set param_card dim64f 7 17.012 # orig: 9.0
set param_card dim64f 8 -4.27 # orig: 12.4
set param_card dim64f 10 -4.263 # orig: 4.1
set param_card dim64f 11 7.096 # orig: 4.2
set param_card dim64f 12 5.583 # orig: 5.5
set param_card dim64f 13 3.841 # orig: 4.4
set param_card dim64f 14 7.465 # orig: 7.0
set param_card dim64f 16 9.204 # orig: 5.4
set param_card dim64f 17 12.312 # orig: 7.0
</weight>
<weight id='EFTrwgt120_ctG_-1.301_cQq83_2.61_cQq81_-0.228_cQu8_-13.019_cQd8_-7.21_ctq8_-10.88_ctu8_-12.7_ctd8_-9.515_cQq13_3.421_cQq11_-0.285_cQu1_-1.252_cQd1_-3.317_ctq1_7.885_ctu1_3.534_ctd1_11.001'>set param_card dim62f 24 -1.301 # orig: 0.7
set param_card dim64f 1 2.61 # orig: 9.0
set param_card dim64f 2 -0.228 # orig: 7.0
set param_card dim64f 3 -13.019 # orig: 9.5
set param_card dim64f 4 -10.88 # orig: 7.0
set param_card dim64f 6 -7.21 # orig: 12.0
set param_card dim64f 7 -12.7 # orig: 9.0
set param_card dim64f 8 -9.515 # orig: 12.4
set param_card dim64f 10 3.421 # orig: 4.1
set param_card dim64f 11 -0.285 # orig: 4.2
set param_card dim64f 12 -1.252 # orig: 5.5
set param_card dim64f 13 7.885 # orig: 4.4
set param_card dim64f 14 -3.317 # orig: 7.0
set param_card dim64f 16 3.534 # orig: 5.4
set param_card dim64f 17 11.001 # orig: 7.0
</weight>
<weight id='EFTrwgt121_ctG_0.544_cQq83_-11.95_cQq81_-0.044_cQu8_-3.43_cQd8_-3.87_ctq8_-7.539_ctu8_-14.796_ctd8_-19.179_cQq13_3.035_cQq11_-7.307_cQu1_1.661_cQd1_-9.45_ctq1_-2.9_ctu1_7.446_ctd1_-4.846'>set param_card dim62f 24 0.544 # orig: 0.7
set param_card dim64f 1 -11.95 # orig: 9.0
set param_card dim64f 2 -0.044 # orig: 7.0
set param_card dim64f 3 -3.43 # orig: 9.5
set param_card dim64f 4 -7.539 # orig: 7.0
set param_card dim64f 6 -3.87 # orig: 12.0
set param_card dim64f 7 -14.796 # orig: 9.0
set param_card dim64f 8 -19.179 # orig: 12.4
set param_card dim64f 10 3.035 # orig: 4.1
set param_card dim64f 11 -7.307 # orig: 4.2
set param_card dim64f 12 1.661 # orig: 5.5
set param_card dim64f 13 -2.9 # orig: 4.4
set param_card dim64f 14 -9.45 # orig: 7.0
set param_card dim64f 16 7.446 # orig: 5.4
set param_card dim64f 17 -4.846 # orig: 7.0
</weight>
<weight id='EFTrwgt122_ctG_0.077_cQq83_12.997_cQq81_8.942_cQu8_-12.333_cQd8_-21.55_ctq8_8.94_ctu8_12.874_ctd8_-23.03_cQq13_7.882_cQq11_-0.681_cQu1_1.4_cQd1_6.361_ctq1_-0.884_ctu1_-0.375_ctd1_1.214'>set param_card dim62f 24 0.077 # orig: 0.7
set param_card dim64f 1 12.997 # orig: 9.0
set param_card dim64f 2 8.942 # orig: 7.0
set param_card dim64f 3 -12.333 # orig: 9.5
set param_card dim64f 4 8.94 # orig: 7.0
set param_card dim64f 6 -21.55 # orig: 12.0
set param_card dim64f 7 12.874 # orig: 9.0
set param_card dim64f 8 -23.03 # orig: 12.4
set param_card dim64f 10 7.882 # orig: 4.1
set param_card dim64f 11 -0.681 # orig: 4.2
set param_card dim64f 12 1.4 # orig: 5.5
set param_card dim64f 13 -0.884 # orig: 4.4
set param_card dim64f 14 6.361 # orig: 7.0
set param_card dim64f 16 -0.375 # orig: 5.4
set param_card dim64f 17 1.214 # orig: 7.0
</weight>
<weight id='EFTrwgt123_ctG_-1.357_cQq83_9.311_cQq81_-6.821_cQu8_-3.271_cQd8_-16.074_ctq8_9.326_ctu8_14.404_ctd8_-2.447_cQq13_3.173_cQq11_-3.404_cQu1_2.525_cQd1_5.494_ctq1_-7.91_ctu1_-0.974_ctd1_4.439'>set param_card dim62f 24 -1.357 # orig: 0.7
set param_card dim64f 1 9.311 # orig: 9.0
set param_card dim64f 2 -6.821 # orig: 7.0
set param_card dim64f 3 -3.271 # orig: 9.5
set param_card dim64f 4 9.326 # orig: 7.0
set param_card dim64f 6 -16.074 # orig: 12.0
set param_card dim64f 7 14.404 # orig: 9.0
set param_card dim64f 8 -2.447 # orig: 12.4
set param_card dim64f 10 3.173 # orig: 4.1
set param_card dim64f 11 -3.404 # orig: 4.2
set param_card dim64f 12 2.525 # orig: 5.5
set param_card dim64f 13 -7.91 # orig: 4.4
set param_card dim64f 14 5.494 # orig: 7.0
set param_card dim64f 16 -0.974 # orig: 5.4
set param_card dim64f 17 4.439 # orig: 7.0
</weight>
<weight id='EFTrwgt124_ctG_-1.223_cQq83_-12.321_cQq81_-7.848_cQu8_-2.265_cQd8_-5.02_ctq8_-13.565_ctu8_-9.074_ctd8_2.046_cQq13_-4.347_cQq11_5.557_cQu1_1.21_cQd1_-2.046_ctq1_-6.903_ctu1_-4.355_ctd1_2.297'>set param_card dim62f 24 -1.223 # orig: 0.7
set param_card dim64f 1 -12.321 # orig: 9.0
set param_card dim64f 2 -7.848 # orig: 7.0
set param_card dim64f 3 -2.265 # orig: 9.5
set param_card dim64f 4 -13.565 # orig: 7.0
set param_card dim64f 6 -5.02 # orig: 12.0
set param_card dim64f 7 -9.074 # orig: 9.0
set param_card dim64f 8 2.046 # orig: 12.4
set param_card dim64f 10 -4.347 # orig: 4.1
set param_card dim64f 11 5.557 # orig: 4.2
set param_card dim64f 12 1.21 # orig: 5.5
set param_card dim64f 13 -6.903 # orig: 4.4
set param_card dim64f 14 -2.046 # orig: 7.0
set param_card dim64f 16 -4.355 # orig: 5.4
set param_card dim64f 17 2.297 # orig: 7.0
</weight>
<weight id='EFTrwgt125_ctG_0.961_cQq83_6.0_cQq81_5.561_cQu8_-3.626_cQd8_-19.356_ctq8_-2.864_ctu8_-0.243_ctd8_23.255_cQq13_-8.112_cQq11_-5.996_cQu1_9.108_cQd1_-10.685_ctq1_-6.426_ctu1_-1.269_ctd1_3.35'>set param_card dim62f 24 0.961 # orig: 0.7
set param_card dim64f 1 6.0 # orig: 9.0
set param_card dim64f 2 5.561 # orig: 7.0
set param_card dim64f 3 -3.626 # orig: 9.5
set param_card dim64f 4 -2.864 # orig: 7.0
set param_card dim64f 6 -19.356 # orig: 12.0
set param_card dim64f 7 -0.243 # orig: 9.0
set param_card dim64f 8 23.255 # orig: 12.4
set param_card dim64f 10 -8.112 # orig: 4.1
set param_card dim64f 11 -5.996 # orig: 4.2
set param_card dim64f 12 9.108 # orig: 5.5
set param_card dim64f 13 -6.426 # orig: 4.4
set param_card dim64f 14 -10.685 # orig: 7.0
set param_card dim64f 16 -1.269 # orig: 5.4
set param_card dim64f 17 3.35 # orig: 7.0
</weight>
<weight id='EFTrwgt126_ctG_0.285_cQq83_-16.325_cQq81_0.476_cQu8_-16.347_cQd8_22.521_ctq8_-0.468_ctu8_-2.288_ctd8_22.57_cQq13_-7.864_cQq11_-2.689_cQu1_6.85_cQd1_8.701_ctq1_6.612_ctu1_10.799_ctd1_5.338'>set param_card dim62f 24 0.285 # orig: 0.7
set param_card dim64f 1 -16.325 # orig: 9.0
set param_card dim64f 2 0.476 # orig: 7.0
set param_card dim64f 3 -16.347 # orig: 9.5
set param_card dim64f 4 -0.468 # orig: 7.0
set param_card dim64f 6 22.521 # orig: 12.0
set param_card dim64f 7 -2.288 # orig: 9.0
set param_card dim64f 8 22.57 # orig: 12.4
set param_card dim64f 10 -7.864 # orig: 4.1
set param_card dim64f 11 -2.689 # orig: 4.2
set param_card dim64f 12 6.85 # orig: 5.5
set param_card dim64f 13 6.612 # orig: 4.4
set param_card dim64f 14 8.701 # orig: 7.0
set param_card dim64f 16 10.799 # orig: 5.4
set param_card dim64f 17 5.338 # orig: 7.0
</weight>
<weight id='EFTrwgt127_ctG_-1.378_cQq83_-17.314_cQq81_-12.704_cQu8_-6.427_cQd8_-12.718_ctq8_4.311_ctu8_-7.334_ctd8_-24.506_cQq13_-8.01_cQq11_5.874_cQu1_0.468_cQd1_8.191_ctq1_-0.277_ctu1_8.517_ctd1_-7.478'>set param_card dim62f 24 -1.378 # orig: 0.7
set param_card dim64f 1 -17.314 # orig: 9.0
set param_card dim64f 2 -12.704 # orig: 7.0
set param_card dim64f 3 -6.427 # orig: 9.5
set param_card dim64f 4 4.311 # orig: 7.0
set param_card dim64f 6 -12.718 # orig: 12.0
set param_card dim64f 7 -7.334 # orig: 9.0
set param_card dim64f 8 -24.506 # orig: 12.4
set param_card dim64f 10 -8.01 # orig: 4.1
set param_card dim64f 11 5.874 # orig: 4.2
set param_card dim64f 12 0.468 # orig: 5.5
set param_card dim64f 13 -0.277 # orig: 4.4
set param_card dim64f 14 8.191 # orig: 7.0
set param_card dim64f 16 8.517 # orig: 5.4
set param_card dim64f 17 -7.478 # orig: 7.0
</weight>
<weight id='EFTrwgt128_ctG_1.18_cQq83_-1.471_cQq81_2.433_cQu8_10.198_cQd8_23.306_ctq8_-12.125_ctu8_16.403_ctd8_18.18_cQq13_7.781_cQq11_-2.869_cQu1_-7.593_cQd1_-6.942_ctq1_0.572_ctu1_3.932_ctd1_-1.468'>set param_card dim62f 24 1.18 # orig: 0.7
set param_card dim64f 1 -1.471 # orig: 9.0
set param_card dim64f 2 2.433 # orig: 7.0
set param_card dim64f 3 10.198 # orig: 9.5
set param_card dim64f 4 -12.125 # orig: 7.0
set param_card dim64f 6 23.306 # orig: 12.0
set param_card dim64f 7 16.403 # orig: 9.0
set param_card dim64f 8 18.18 # orig: 12.4
set param_card dim64f 10 7.781 # orig: 4.1
set param_card dim64f 11 -2.869 # orig: 4.2
set param_card dim64f 12 -7.593 # orig: 5.5
set param_card dim64f 13 0.572 # orig: 4.4
set param_card dim64f 14 -6.942 # orig: 7.0
set param_card dim64f 16 3.932 # orig: 5.4
set param_card dim64f 17 -1.468 # orig: 7.0
</weight>
<weight id='EFTrwgt129_ctG_0.941_cQq83_-4.592_cQq81_6.49_cQu8_-5.317_cQd8_16.947_ctq8_12.635_ctu8_-5.132_ctd8_22.403_cQq13_2.333_cQq11_-2.444_cQu1_7.188_cQd1_-3.684_ctq1_-5.675_ctu1_-4.027_ctd1_-1.358'>set param_card dim62f 24 0.941 # orig: 0.7
set param_card dim64f 1 -4.592 # orig: 9.0
set param_card dim64f 2 6.49 # orig: 7.0
set param_card dim64f 3 -5.317 # orig: 9.5
set param_card dim64f 4 12.635 # orig: 7.0
set param_card dim64f 6 16.947 # orig: 12.0
set param_card dim64f 7 -5.132 # orig: 9.0
set param_card dim64f 8 22.403 # orig: 12.4
set param_card dim64f 10 2.333 # orig: 4.1
set param_card dim64f 11 -2.444 # orig: 4.2
set param_card dim64f 12 7.188 # orig: 5.5
set param_card dim64f 13 -5.675 # orig: 4.4
set param_card dim64f 14 -3.684 # orig: 7.0
set param_card dim64f 16 -4.027 # orig: 5.4
set param_card dim64f 17 -1.358 # orig: 7.0
</weight>
<weight id='EFTrwgt130_ctG_-0.208_cQq83_-17.622_cQq81_-2.397_cQu8_15.786_cQd8_15.249_ctq8_-1.44_ctu8_10.097_ctd8_-10.056_cQq13_-3.196_cQq11_4.986_cQu1_-0.332_cQd1_-13.619_ctq1_2.563_ctu1_1.892_ctd1_2.648'>set param_card dim62f 24 -0.208 # orig: 0.7
set param_card dim64f 1 -17.622 # orig: 9.0
set param_card dim64f 2 -2.397 # orig: 7.0
set param_card dim64f 3 15.786 # orig: 9.5
set param_card dim64f 4 -1.44 # orig: 7.0
set param_card dim64f 6 15.249 # orig: 12.0
set param_card dim64f 7 10.097 # orig: 9.0
set param_card dim64f 8 -10.056 # orig: 12.4
set param_card dim64f 10 -3.196 # orig: 4.1
set param_card dim64f 11 4.986 # orig: 4.2
set param_card dim64f 12 -0.332 # orig: 5.5
set param_card dim64f 13 2.563 # orig: 4.4
set param_card dim64f 14 -13.619 # orig: 7.0
set param_card dim64f 16 1.892 # orig: 5.4
set param_card dim64f 17 2.648 # orig: 7.0
</weight>
<weight id='EFTrwgt131_ctG_1.247_cQq83_-17.63_cQq81_-10.818_cQu8_5.208_cQd8_0.681_ctq8_12.537_ctu8_-14.866_ctd8_3.091_cQq13_2.337_cQq11_-5.924_cQu1_5.379_cQd1_5.986_ctq1_-5.666_ctu1_10.553_ctd1_1.395'>set param_card dim62f 24 1.247 # orig: 0.7
set param_card dim64f 1 -17.63 # orig: 9.0
set param_card dim64f 2 -10.818 # orig: 7.0
set param_card dim64f 3 5.208 # orig: 9.5
set param_card dim64f 4 12.537 # orig: 7.0
set param_card dim64f 6 0.681 # orig: 12.0
set param_card dim64f 7 -14.866 # orig: 9.0
set param_card dim64f 8 3.091 # orig: 12.4
set param_card dim64f 10 2.337 # orig: 4.1
set param_card dim64f 11 -5.924 # orig: 4.2
set param_card dim64f 12 5.379 # orig: 5.5
set param_card dim64f 13 -5.666 # orig: 4.4
set param_card dim64f 14 5.986 # orig: 7.0
set param_card dim64f 16 10.553 # orig: 5.4
set param_card dim64f 17 1.395 # orig: 7.0
</weight>
<weight id='EFTrwgt132_ctG_-0.801_cQq83_7.262_cQq81_9.212_cQu8_-8.732_cQd8_-8.091_ctq8_-1.906_ctu8_3.948_ctd8_13.123_cQq13_2.692_cQq11_8.195_cQu1_0.96_cQd1_-1.571_ctq1_5.243_ctu1_-1.861_ctd1_-9.371'>set param_card dim62f 24 -0.801 # orig: 0.7
set param_card dim64f 1 7.262 # orig: 9.0
set param_card dim64f 2 9.212 # orig: 7.0
set param_card dim64f 3 -8.732 # orig: 9.5
set param_card dim64f 4 -1.906 # orig: 7.0
set param_card dim64f 6 -8.091 # orig: 12.0
set param_card dim64f 7 3.948 # orig: 9.0
set param_card dim64f 8 13.123 # orig: 12.4
set param_card dim64f 10 2.692 # orig: 4.1
set param_card dim64f 11 8.195 # orig: 4.2
set param_card dim64f 12 0.96 # orig: 5.5
set param_card dim64f 13 5.243 # orig: 4.4
set param_card dim64f 14 -1.571 # orig: 7.0
set param_card dim64f 16 -1.861 # orig: 5.4
set param_card dim64f 17 -9.371 # orig: 7.0
</weight>
<weight id='EFTrwgt133_ctG_-1.257_cQq83_16.117_cQq81_-9.715_cQu8_-7.571_cQd8_1.07_ctq8_2.477_ctu8_-7.002_ctd8_13.477_cQq13_-0.711_cQq11_7.763_cQu1_-6.041_cQd1_-7.251_ctq1_-2.998_ctu1_-2.904_ctd1_-12.567'>set param_card dim62f 24 -1.257 # orig: 0.7
set param_card dim64f 1 16.117 # orig: 9.0
set param_card dim64f 2 -9.715 # orig: 7.0
set param_card dim64f 3 -7.571 # orig: 9.5
set param_card dim64f 4 2.477 # orig: 7.0
set param_card dim64f 6 1.07 # orig: 12.0
set param_card dim64f 7 -7.002 # orig: 9.0
set param_card dim64f 8 13.477 # orig: 12.4
set param_card dim64f 10 -0.711 # orig: 4.1
set param_card dim64f 11 7.763 # orig: 4.2
set param_card dim64f 12 -6.041 # orig: 5.5
set param_card dim64f 13 -2.998 # orig: 4.4
set param_card dim64f 14 -7.251 # orig: 7.0
set param_card dim64f 16 -2.904 # orig: 5.4
set param_card dim64f 17 -12.567 # orig: 7.0
</weight>
<weight id='EFTrwgt134_ctG_1.354_cQq83_-7.657_cQq81_-1.021_cQu8_-16.291_cQd8_1.184_ctq8_-2.275_ctu8_16.917_ctd8_-5.942_cQq13_5.969_cQq11_3.289_cQu1_-10.263_cQd1_4.064_ctq1_8.35_ctu1_-0.11_ctd1_0.257'>set param_card dim62f 24 1.354 # orig: 0.7
set param_card dim64f 1 -7.657 # orig: 9.0
set param_card dim64f 2 -1.021 # orig: 7.0
set param_card dim64f 3 -16.291 # orig: 9.5
set param_card dim64f 4 -2.275 # orig: 7.0
set param_card dim64f 6 1.184 # orig: 12.0
set param_card dim64f 7 16.917 # orig: 9.0
set param_card dim64f 8 -5.942 # orig: 12.4
set param_card dim64f 10 5.969 # orig: 4.1
set param_card dim64f 11 3.289 # orig: 4.2
set param_card dim64f 12 -10.263 # orig: 5.5
set param_card dim64f 13 8.35 # orig: 4.4
set param_card dim64f 14 4.064 # orig: 7.0
set param_card dim64f 16 -0.11 # orig: 5.4
set param_card dim64f 17 0.257 # orig: 7.0
</weight>
<weight id='EFTrwgt135_ctG_-0.715_cQq83_-9.614_cQq81_-10.763_cQu8_9.461_cQd8_21.044_ctq8_0.83_ctu8_16.276_ctd8_17.397_cQq13_7.427_cQq11_-7.592_cQu1_5.575_cQd1_-12.777_ctq1_0.413_ctu1_-0.337_ctd1_5.614'>set param_card dim62f 24 -0.715 # orig: 0.7
set param_card dim64f 1 -9.614 # orig: 9.0
set param_card dim64f 2 -10.763 # orig: 7.0
set param_card dim64f 3 9.461 # orig: 9.5
set param_card dim64f 4 0.83 # orig: 7.0
set param_card dim64f 6 21.044 # orig: 12.0
set param_card dim64f 7 16.276 # orig: 9.0
set param_card dim64f 8 17.397 # orig: 12.4
set param_card dim64f 10 7.427 # orig: 4.1
set param_card dim64f 11 -7.592 # orig: 4.2
set param_card dim64f 12 5.575 # orig: 5.5
set param_card dim64f 13 0.413 # orig: 4.4
set param_card dim64f 14 -12.777 # orig: 7.0
set param_card dim64f 16 -0.337 # orig: 5.4
set param_card dim64f 17 5.614 # orig: 7.0
</weight>
<weight id='EFTrwgt136_ctG_1.148_cQq83_9.105_cQq81_7.25_cQu8_15.489_cQd8_-14.113_ctq8_-1.534_ctu8_-4.722_ctd8_-14.085_cQq13_7.64_cQq11_5.644_cQu1_6.289_cQd1_-3.464_ctq1_-4.467_ctu1_10.661_ctd1_-10.103'>set param_card dim62f 24 1.148 # orig: 0.7
set param_card dim64f 1 9.105 # orig: 9.0
set param_card dim64f 2 7.25 # orig: 7.0
set param_card dim64f 3 15.489 # orig: 9.5
set param_card dim64f 4 -1.534 # orig: 7.0
set param_card dim64f 6 -14.113 # orig: 12.0
set param_card dim64f 7 -4.722 # orig: 9.0
set param_card dim64f 8 -14.085 # orig: 12.4
set param_card dim64f 10 7.64 # orig: 4.1
set param_card dim64f 11 5.644 # orig: 4.2
set param_card dim64f 12 6.289 # orig: 5.5
set param_card dim64f 13 -4.467 # orig: 4.4
set param_card dim64f 14 -3.464 # orig: 7.0
set param_card dim64f 16 10.661 # orig: 5.4
set param_card dim64f 17 -10.103 # orig: 7.0
</weight>
<weight id='EFTrwgt137_ctG_0.519_cQq83_-3.88_cQq81_5.428_cQu8_-11.688_cQd8_12.458_ctq8_5.584_ctu8_4.192_ctd8_-4.494_cQq13_0.22_cQq11_6.429_cQu1_0.379_cQd1_-2.464_ctq1_3.48_ctu1_8.707_ctd1_10.184'>set param_card dim62f 24 0.519 # orig: 0.7
set param_card dim64f 1 -3.88 # orig: 9.0
set param_card dim64f 2 5.428 # orig: 7.0
set param_card dim64f 3 -11.688 # orig: 9.5
set param_card dim64f 4 5.584 # orig: 7.0
set param_card dim64f 6 12.458 # orig: 12.0
set param_card dim64f 7 4.192 # orig: 9.0
set param_card dim64f 8 -4.494 # orig: 12.4
set param_card dim64f 10 0.22 # orig: 4.1
set param_card dim64f 11 6.429 # orig: 4.2
set param_card dim64f 12 0.379 # orig: 5.5
set param_card dim64f 13 3.48 # orig: 4.4
set param_card dim64f 14 -2.464 # orig: 7.0
set param_card dim64f 16 8.707 # orig: 5.4
set param_card dim64f 17 10.184 # orig: 7.0
</weight>
<weight id='EFTrwgt138_ctG_0.044_cQq83_15.014_cQq81_-2.24_cQu8_-0.07_cQd8_15.723_ctq8_4.233_ctu8_15.378_ctd8_22.326_cQq13_5.742_cQq11_-7.973_cQu1_5.127_cQd1_8.3_ctq1_-2.237_ctu1_-6.818_ctd1_9.184'>set param_card dim62f 24 0.044 # orig: 0.7
set param_card dim64f 1 15.014 # orig: 9.0
set param_card dim64f 2 -2.24 # orig: 7.0
set param_card dim64f 3 -0.07 # orig: 9.5
set param_card dim64f 4 4.233 # orig: 7.0
set param_card dim64f 6 15.723 # orig: 12.0
set param_card dim64f 7 15.378 # orig: 9.0
set param_card dim64f 8 22.326 # orig: 12.4
set param_card dim64f 10 5.742 # orig: 4.1
set param_card dim64f 11 -7.973 # orig: 4.2
set param_card dim64f 12 5.127 # orig: 5.5
set param_card dim64f 13 -2.237 # orig: 4.4
set param_card dim64f 14 8.3 # orig: 7.0
set param_card dim64f 16 -6.818 # orig: 5.4
set param_card dim64f 17 9.184 # orig: 7.0
</weight>
<weight id='EFTrwgt139_ctG_0.536_cQq83_3.108_cQq81_-2.815_cQu8_17.298_cQd8_-20.517_ctq8_-0.558_ctu8_5.522_ctd8_9.105_cQq13_7.706_cQq11_-1.121_cQu1_6.904_cQd1_-8.677_ctq1_0.168_ctu1_4.991_ctd1_3.884'>set param_card dim62f 24 0.536 # orig: 0.7
set param_card dim64f 1 3.108 # orig: 9.0
set param_card dim64f 2 -2.815 # orig: 7.0
set param_card dim64f 3 17.298 # orig: 9.5
set param_card dim64f 4 -0.558 # orig: 7.0
set param_card dim64f 6 -20.517 # orig: 12.0
set param_card dim64f 7 5.522 # orig: 9.0
set param_card dim64f 8 9.105 # orig: 12.4
set param_card dim64f 10 7.706 # orig: 4.1
set param_card dim64f 11 -1.121 # orig: 4.2
set param_card dim64f 12 6.904 # orig: 5.5
set param_card dim64f 13 0.168 # orig: 4.4
set param_card dim64f 14 -8.677 # orig: 7.0
set param_card dim64f 16 4.991 # orig: 5.4
set param_card dim64f 17 3.884 # orig: 7.0
</weight>
<weight id='EFTrwgt140_ctG_-1.222_cQq83_14.489_cQq81_7.936_cQu8_-5.001_cQd8_-7.099_ctq8_0.704_ctu8_-16.077_ctd8_15.282_cQq13_3.777_cQq11_4.884_cQu1_-3.897_cQd1_-3.233_ctq1_-0.56_ctu1_1.21_ctd1_-11.922'>set param_card dim62f 24 -1.222 # orig: 0.7
set param_card dim64f 1 14.489 # orig: 9.0
set param_card dim64f 2 7.936 # orig: 7.0
set param_card dim64f 3 -5.001 # orig: 9.5
set param_card dim64f 4 0.704 # orig: 7.0
set param_card dim64f 6 -7.099 # orig: 12.0
set param_card dim64f 7 -16.077 # orig: 9.0
set param_card dim64f 8 15.282 # orig: 12.4
set param_card dim64f 10 3.777 # orig: 4.1
set param_card dim64f 11 4.884 # orig: 4.2
set param_card dim64f 12 -3.897 # orig: 5.5
set param_card dim64f 13 -0.56 # orig: 4.4
set param_card dim64f 14 -3.233 # orig: 7.0
set param_card dim64f 16 1.21 # orig: 5.4
set param_card dim64f 17 -11.922 # orig: 7.0
</weight>
<weight id='EFTrwgt141_ctG_-0.595_cQq83_-16.264_cQq81_7.534_cQu8_-4.512_cQd8_17.409_ctq8_3.217_ctu8_-8.193_ctd8_8.464_cQq13_-7.686_cQq11_-1.06_cQu1_4.135_cQd1_9.485_ctq1_-2.481_ctu1_4.42_ctd1_3.636'>set param_card dim62f 24 -0.595 # orig: 0.7
set param_card dim64f 1 -16.264 # orig: 9.0
set param_card dim64f 2 7.534 # orig: 7.0
set param_card dim64f 3 -4.512 # orig: 9.5
set param_card dim64f 4 3.217 # orig: 7.0
set param_card dim64f 6 17.409 # orig: 12.0
set param_card dim64f 7 -8.193 # orig: 9.0
set param_card dim64f 8 8.464 # orig: 12.4
set param_card dim64f 10 -7.686 # orig: 4.1
set param_card dim64f 11 -1.06 # orig: 4.2
set param_card dim64f 12 4.135 # orig: 5.5
set param_card dim64f 13 -2.481 # orig: 4.4
set param_card dim64f 14 9.485 # orig: 7.0
set param_card dim64f 16 4.42 # orig: 5.4
set param_card dim64f 17 3.636 # orig: 7.0
</weight>
<weight id='EFTrwgt142_ctG_1.208_cQq83_4.059_cQq81_6.781_cQu8_-5.717_cQd8_-21.408_ctq8_0.083_ctu8_14.943_ctd8_11.388_cQq13_0.694_cQq11_-5.103_cQu1_-7.402_cQd1_13.43_ctq1_3.406_ctu1_2.945_ctd1_5.188'>set param_card dim62f 24 1.208 # orig: 0.7
set param_card dim64f 1 4.059 # orig: 9.0
set param_card dim64f 2 6.781 # orig: 7.0
set param_card dim64f 3 -5.717 # orig: 9.5
set param_card dim64f 4 0.083 # orig: 7.0
set param_card dim64f 6 -21.408 # orig: 12.0
set param_card dim64f 7 14.943 # orig: 9.0
set param_card dim64f 8 11.388 # orig: 12.4
set param_card dim64f 10 0.694 # orig: 4.1
set param_card dim64f 11 -5.103 # orig: 4.2
set param_card dim64f 12 -7.402 # orig: 5.5
set param_card dim64f 13 3.406 # orig: 4.4
set param_card dim64f 14 13.43 # orig: 7.0
set param_card dim64f 16 2.945 # orig: 5.4
set param_card dim64f 17 5.188 # orig: 7.0
</weight>
<weight id='EFTrwgt143_ctG_0.787_cQq83_2.859_cQq81_-12.404_cQu8_17.905_cQd8_18.147_ctq8_5.594_ctu8_13.171_ctd8_-8.3_cQq13_-1.709_cQq11_3.715_cQu1_-2.267_cQd1_0.319_ctq1_-2.513_ctu1_-6.093_ctd1_0.66'>set param_card dim62f 24 0.787 # orig: 0.7
set param_card dim64f 1 2.859 # orig: 9.0
set param_card dim64f 2 -12.404 # orig: 7.0
set param_card dim64f 3 17.905 # orig: 9.5
set param_card dim64f 4 5.594 # orig: 7.0
set param_card dim64f 6 18.147 # orig: 12.0
set param_card dim64f 7 13.171 # orig: 9.0
set param_card dim64f 8 -8.3 # orig: 12.4
set param_card dim64f 10 -1.709 # orig: 4.1
set param_card dim64f 11 3.715 # orig: 4.2
set param_card dim64f 12 -2.267 # orig: 5.5
set param_card dim64f 13 -2.513 # orig: 4.4
set param_card dim64f 14 0.319 # orig: 7.0
set param_card dim64f 16 -6.093 # orig: 5.4
set param_card dim64f 17 0.66 # orig: 7.0
</weight>
<weight id='EFTrwgt144_ctG_0.369_cQq83_12.119_cQq81_10.451_cQu8_-4.308_cQd8_10.751_ctq8_2.903_ctu8_-16.453_ctd8_12.168_cQq13_-7.8_cQq11_-4.495_cQu1_-7.968_cQd1_-11.778_ctq1_-0.673_ctu1_9.838_ctd1_7.574'>set param_card dim62f 24 0.369 # orig: 0.7
set param_card dim64f 1 12.119 # orig: 9.0
set param_card dim64f 2 10.451 # orig: 7.0
set param_card dim64f 3 -4.308 # orig: 9.5
set param_card dim64f 4 2.903 # orig: 7.0
set param_card dim64f 6 10.751 # orig: 12.0
set param_card dim64f 7 -16.453 # orig: 9.0
set param_card dim64f 8 12.168 # orig: 12.4
set param_card dim64f 10 -7.8 # orig: 4.1
set param_card dim64f 11 -4.495 # orig: 4.2
set param_card dim64f 12 -7.968 # orig: 5.5
set param_card dim64f 13 -0.673 # orig: 4.4
set param_card dim64f 14 -11.778 # orig: 7.0
set param_card dim64f 16 9.838 # orig: 5.4
set param_card dim64f 17 7.574 # orig: 7.0
</weight>
<weight id='EFTrwgt145_ctG_-0.314_cQq83_-7.538_cQq81_9.523_cQu8_-0.965_cQd8_7.921_ctq8_-3.669_ctu8_-17.137_ctd8_13.302_cQq13_-0.272_cQq11_-1.659_cQu1_-4.888_cQd1_2.565_ctq1_-4.075_ctu1_7.665_ctd1_4.628'>set param_card dim62f 24 -0.314 # orig: 0.7
set param_card dim64f 1 -7.538 # orig: 9.0
set param_card dim64f 2 9.523 # orig: 7.0
set param_card dim64f 3 -0.965 # orig: 9.5
set param_card dim64f 4 -3.669 # orig: 7.0
set param_card dim64f 6 7.921 # orig: 12.0
set param_card dim64f 7 -17.137 # orig: 9.0
set param_card dim64f 8 13.302 # orig: 12.4
set param_card dim64f 10 -0.272 # orig: 4.1
set param_card dim64f 11 -1.659 # orig: 4.2
set param_card dim64f 12 -4.888 # orig: 5.5
set param_card dim64f 13 -4.075 # orig: 4.4
set param_card dim64f 14 2.565 # orig: 7.0
set param_card dim64f 16 7.665 # orig: 5.4
set param_card dim64f 17 4.628 # orig: 7.0
</weight>
<weight id='EFTrwgt146_ctG_-0.028_cQq83_17.018_cQq81_4.288_cQu8_2.423_cQd8_9.91_ctq8_-1.803_ctu8_-7.374_ctd8_-22.743_cQq13_1.412_cQq11_1.518_cQu1_-5.031_cQd1_4.621_ctq1_-2.805_ctu1_-7.971_ctd1_2.504'>set param_card dim62f 24 -0.028 # orig: 0.7
set param_card dim64f 1 17.018 # orig: 9.0
set param_card dim64f 2 4.288 # orig: 7.0
set param_card dim64f 3 2.423 # orig: 9.5
set param_card dim64f 4 -1.803 # orig: 7.0
set param_card dim64f 6 9.91 # orig: 12.0
set param_card dim64f 7 -7.374 # orig: 9.0
set param_card dim64f 8 -22.743 # orig: 12.4
set param_card dim64f 10 1.412 # orig: 4.1
set param_card dim64f 11 1.518 # orig: 4.2
set param_card dim64f 12 -5.031 # orig: 5.5
set param_card dim64f 13 -2.805 # orig: 4.4
set param_card dim64f 14 4.621 # orig: 7.0
set param_card dim64f 16 -7.971 # orig: 5.4
set param_card dim64f 17 2.504 # orig: 7.0
</weight>
<weight id='EFTrwgt147_ctG_0.512_cQq83_9.531_cQq81_-2.016_cQu8_15.155_cQd8_-1.954_ctq8_-13.237_ctu8_1.868_ctd8_5.908_cQq13_-7.773_cQq11_7.257_cQu1_4.489_cQd1_2.963_ctq1_-3.777_ctu1_5.458_ctd1_-6.432'>set param_card dim62f 24 0.512 # orig: 0.7
set param_card dim64f 1 9.531 # orig: 9.0
set param_card dim64f 2 -2.016 # orig: 7.0
set param_card dim64f 3 15.155 # orig: 9.5
set param_card dim64f 4 -13.237 # orig: 7.0
set param_card dim64f 6 -1.954 # orig: 12.0
set param_card dim64f 7 1.868 # orig: 9.0
set param_card dim64f 8 5.908 # orig: 12.4
set param_card dim64f 10 -7.773 # orig: 4.1
set param_card dim64f 11 7.257 # orig: 4.2
set param_card dim64f 12 4.489 # orig: 5.5
set param_card dim64f 13 -3.777 # orig: 4.4
set param_card dim64f 14 2.963 # orig: 7.0
set param_card dim64f 16 5.458 # orig: 5.4
set param_card dim64f 17 -6.432 # orig: 7.0
</weight>
<weight id='EFTrwgt148_ctG_-0.482_cQq83_17.097_cQq81_10.457_cQu8_-6.705_cQd8_-13.185_ctq8_-4.371_ctu8_14.509_ctd8_-13.32_cQq13_1.822_cQq11_0.354_cQu1_7.002_cQd1_10.541_ctq1_5.822_ctu1_5.744_ctd1_-13.15'>set param_card dim62f 24 -0.482 # orig: 0.7
set param_card dim64f 1 17.097 # orig: 9.0
set param_card dim64f 2 10.457 # orig: 7.0
set param_card dim64f 3 -6.705 # orig: 9.5
set param_card dim64f 4 -4.371 # orig: 7.0
set param_card dim64f 6 -13.185 # orig: 12.0
set param_card dim64f 7 14.509 # orig: 9.0
set param_card dim64f 8 -13.32 # orig: 12.4
set param_card dim64f 10 1.822 # orig: 4.1
set param_card dim64f 11 0.354 # orig: 4.2
set param_card dim64f 12 7.002 # orig: 5.5
set param_card dim64f 13 5.822 # orig: 4.4
set param_card dim64f 14 10.541 # orig: 7.0
set param_card dim64f 16 5.744 # orig: 5.4
set param_card dim64f 17 -13.15 # orig: 7.0
</weight>
<weight id='EFTrwgt149_ctG_-0.905_cQq83_0.86_cQq81_-13.515_cQu8_11.771_cQd8_-1.866_ctq8_13.439_ctu8_0.144_ctd8_13.675_cQq13_-5.569_cQq11_-7.731_cQu1_1.84_cQd1_3.468_ctq1_-5.507_ctu1_1.982_ctd1_-13.061'>set param_card dim62f 24 -0.905 # orig: 0.7
set param_card dim64f 1 0.86 # orig: 9.0
set param_card dim64f 2 -13.515 # orig: 7.0
set param_card dim64f 3 11.771 # orig: 9.5
set param_card dim64f 4 13.439 # orig: 7.0
set param_card dim64f 6 -1.866 # orig: 12.0
set param_card dim64f 7 0.144 # orig: 9.0
set param_card dim64f 8 13.675 # orig: 12.4
set param_card dim64f 10 -5.569 # orig: 4.1
set param_card dim64f 11 -7.731 # orig: 4.2
set param_card dim64f 12 1.84 # orig: 5.5
set param_card dim64f 13 -5.507 # orig: 4.4
set param_card dim64f 14 3.468 # orig: 7.0
set param_card dim64f 16 1.982 # orig: 5.4
set param_card dim64f 17 -13.061 # orig: 7.0
</weight>
<weight id='EFTrwgt150_ctG_0.0_cQq83_-11.426_cQq81_-6.524_cQu8_-16.088_cQd8_-21.27_ctq8_10.524_ctu8_14.233_ctd8_17.255_cQq13_4.89_cQq11_-4.416_cQu1_4.918_cQd1_-11.767_ctq1_1.268_ctu1_3.231_ctd1_-6.475'>set param_card dim62f 24 0.0 # orig: 0.7
set param_card dim64f 1 -11.426 # orig: 9.0
set param_card dim64f 2 -6.524 # orig: 7.0
set param_card dim64f 3 -16.088 # orig: 9.5
set param_card dim64f 4 10.524 # orig: 7.0
set param_card dim64f 6 -21.27 # orig: 12.0
set param_card dim64f 7 14.233 # orig: 9.0
set param_card dim64f 8 17.255 # orig: 12.4
set param_card dim64f 10 4.89 # orig: 4.1
set param_card dim64f 11 -4.416 # orig: 4.2
set param_card dim64f 12 4.918 # orig: 5.5
set param_card dim64f 13 1.268 # orig: 4.4
set param_card dim64f 14 -11.767 # orig: 7.0
set param_card dim64f 16 3.231 # orig: 5.4
set param_card dim64f 17 -6.475 # orig: 7.0
</weight>
<weight id='EFTrwgt151_ctG_-0.918_cQq83_-17.499_cQq81_-6.826_cQu8_10.016_cQd8_16.971_ctq8_1.599_ctu8_16.783_ctd8_5.312_cQq13_-2.351_cQq11_-1.209_cQu1_0.269_cQd1_-8.867_ctq1_-7.829_ctu1_-1.326_ctd1_-0.175'>set param_card dim62f 24 -0.918 # orig: 0.7
set param_card dim64f 1 -17.499 # orig: 9.0
set param_card dim64f 2 -6.826 # orig: 7.0
set param_card dim64f 3 10.016 # orig: 9.5
set param_card dim64f 4 1.599 # orig: 7.0
set param_card dim64f 6 16.971 # orig: 12.0
set param_card dim64f 7 16.783 # orig: 9.0
set param_card dim64f 8 5.312 # orig: 12.4
set param_card dim64f 10 -2.351 # orig: 4.1
set param_card dim64f 11 -1.209 # orig: 4.2
set param_card dim64f 12 0.269 # orig: 5.5
set param_card dim64f 13 -7.829 # orig: 4.4
set param_card dim64f 14 -8.867 # orig: 7.0
set param_card dim64f 16 -1.326 # orig: 5.4
set param_card dim64f 17 -0.175 # orig: 7.0
</weight>
<weight id='EFTrwgt152_ctG_-0.246_cQq83_8.939_cQq81_-6.847_cQu8_-18.344_cQd8_21.999_ctq8_6.606_ctu8_9.509_ctd8_17.198_cQq13_-1.071_cQq11_7.466_cQu1_-6.387_cQd1_-1.912_ctq1_8.495_ctu1_-3.261_ctd1_8.87'>set param_card dim62f 24 -0.246 # orig: 0.7
set param_card dim64f 1 8.939 # orig: 9.0
set param_card dim64f 2 -6.847 # orig: 7.0
set param_card dim64f 3 -18.344 # orig: 9.5
set param_card dim64f 4 6.606 # orig: 7.0
set param_card dim64f 6 21.999 # orig: 12.0
set param_card dim64f 7 9.509 # orig: 9.0
set param_card dim64f 8 17.198 # orig: 12.4
set param_card dim64f 10 -1.071 # orig: 4.1
set param_card dim64f 11 7.466 # orig: 4.2
set param_card dim64f 12 -6.387 # orig: 5.5
set param_card dim64f 13 8.495 # orig: 4.4
set param_card dim64f 14 -1.912 # orig: 7.0
set param_card dim64f 16 -3.261 # orig: 5.4
set param_card dim64f 17 8.87 # orig: 7.0
</weight>
<weight id='EFTrwgt153_ctG_0.903_cQq83_-16.714_cQq81_4.491_cQu8_13.339_cQd8_3.836_ctq8_10.658_ctu8_1.169_ctd8_-12.868_cQq13_-4.118_cQq11_5.124_cQu1_5.936_cQd1_-5.521_ctq1_-6.529_ctu1_-3.471_ctd1_-8.961'>set param_card dim62f 24 0.903 # orig: 0.7
set param_card dim64f 1 -16.714 # orig: 9.0
set param_card dim64f 2 4.491 # orig: 7.0
set param_card dim64f 3 13.339 # orig: 9.5
set param_card dim64f 4 10.658 # orig: 7.0
set param_card dim64f 6 3.836 # orig: 12.0
set param_card dim64f 7 1.169 # orig: 9.0
set param_card dim64f 8 -12.868 # orig: 12.4
set param_card dim64f 10 -4.118 # orig: 4.1
set param_card dim64f 11 5.124 # orig: 4.2
set param_card dim64f 12 5.936 # orig: 5.5
set param_card dim64f 13 -6.529 # orig: 4.4
set param_card dim64f 14 -5.521 # orig: 7.0
set param_card dim64f 16 -3.471 # orig: 5.4
set param_card dim64f 17 -8.961 # orig: 7.0
</weight>
<weight id='EFTrwgt154_ctG_-0.773_cQq83_-11.295_cQq81_11.399_cQu8_12.409_cQd8_-7.958_ctq8_-6.63_ctu8_17.921_ctd8_-4.387_cQq13_-1.075_cQq11_-3.648_cQu1_0.733_cQd1_9.925_ctq1_-5.979_ctu1_6.286_ctd1_-8.945'>set param_card dim62f 24 -0.773 # orig: 0.7
set param_card dim64f 1 -11.295 # orig: 9.0
set param_card dim64f 2 11.399 # orig: 7.0
set param_card dim64f 3 12.409 # orig: 9.5
set param_card dim64f 4 -6.63 # orig: 7.0
set param_card dim64f 6 -7.958 # orig: 12.0
set param_card dim64f 7 17.921 # orig: 9.0
set param_card dim64f 8 -4.387 # orig: 12.4
set param_card dim64f 10 -1.075 # orig: 4.1
set param_card dim64f 11 -3.648 # orig: 4.2
set param_card dim64f 12 0.733 # orig: 5.5
set param_card dim64f 13 -5.979 # orig: 4.4
set param_card dim64f 14 9.925 # orig: 7.0
set param_card dim64f 16 6.286 # orig: 5.4
set param_card dim64f 17 -8.945 # orig: 7.0
</weight>
<weight id='EFTrwgt155_ctG_-1.155_cQq83_10.436_cQq81_11.789_cQu8_11.375_cQd8_0.293_ctq8_-12.103_ctu8_-1.324_ctd8_-13.307_cQq13_0.647_cQq11_-1.508_cQu1_4.529_cQd1_-4.847_ctq1_-1.864_ctu1_7.458_ctd1_-2.56'>set param_card dim62f 24 -1.155 # orig: 0.7
set param_card dim64f 1 10.436 # orig: 9.0
set param_card dim64f 2 11.789 # orig: 7.0
set param_card dim64f 3 11.375 # orig: 9.5
set param_card dim64f 4 -12.103 # orig: 7.0
set param_card dim64f 6 0.293 # orig: 12.0
set param_card dim64f 7 -1.324 # orig: 9.0
set param_card dim64f 8 -13.307 # orig: 12.4
set param_card dim64f 10 0.647 # orig: 4.1
set param_card dim64f 11 -1.508 # orig: 4.2
set param_card dim64f 12 4.529 # orig: 5.5
set param_card dim64f 13 -1.864 # orig: 4.4
set param_card dim64f 14 -4.847 # orig: 7.0
set param_card dim64f 16 7.458 # orig: 5.4
set param_card dim64f 17 -2.56 # orig: 7.0
</weight>
<weight id='EFTrwgt156_ctG_1.116_cQq83_-1.502_cQq81_7.154_cQu8_-6.575_cQd8_-19.147_ctq8_-2.196_ctu8_15.471_ctd8_-13.501_cQq13_6.413_cQq11_3.8_cQu1_-1.927_cQd1_3.978_ctq1_3.939_ctu1_-0.696_ctd1_7.298'>set param_card dim62f 24 1.116 # orig: 0.7
set param_card dim64f 1 -1.502 # orig: 9.0
set param_card dim64f 2 7.154 # orig: 7.0
set param_card dim64f 3 -6.575 # orig: 9.5
set param_card dim64f 4 -2.196 # orig: 7.0
set param_card dim64f 6 -19.147 # orig: 12.0
set param_card dim64f 7 15.471 # orig: 9.0
set param_card dim64f 8 -13.501 # orig: 12.4
set param_card dim64f 10 6.413 # orig: 4.1
set param_card dim64f 11 3.8 # orig: 4.2
set param_card dim64f 12 -1.927 # orig: 5.5
set param_card dim64f 13 3.939 # orig: 4.4
set param_card dim64f 14 3.978 # orig: 7.0
set param_card dim64f 16 -0.696 # orig: 5.4
set param_card dim64f 17 7.298 # orig: 7.0
</weight>
<weight id='EFTrwgt157_ctG_-0.739_cQq83_2.709_cQq81_13.851_cQu8_9.744_cQd8_-15.601_ctq8_-3.406_ctu8_0.534_ctd8_13.826_cQq13_-5.94_cQq11_0.154_cQu1_4.119_cQd1_-0.999_ctq1_7.262_ctu1_1.145_ctd1_4.349'>set param_card dim62f 24 -0.739 # orig: 0.7
set param_card dim64f 1 2.709 # orig: 9.0
set param_card dim64f 2 13.851 # orig: 7.0
set param_card dim64f 3 9.744 # orig: 9.5
set param_card dim64f 4 -3.406 # orig: 7.0
set param_card dim64f 6 -15.601 # orig: 12.0
set param_card dim64f 7 0.534 # orig: 9.0
set param_card dim64f 8 13.826 # orig: 12.4
set param_card dim64f 10 -5.94 # orig: 4.1
set param_card dim64f 11 0.154 # orig: 4.2
set param_card dim64f 12 4.119 # orig: 5.5
set param_card dim64f 13 7.262 # orig: 4.4
set param_card dim64f 14 -0.999 # orig: 7.0
set param_card dim64f 16 1.145 # orig: 5.4
set param_card dim64f 17 4.349 # orig: 7.0
</weight>
<weight id='EFTrwgt158_ctG_-0.16_cQq83_8.752_cQq81_-10.353_cQu8_13.772_cQd8_-19.74_ctq8_1.97_ctu8_-17.022_ctd8_-15.946_cQq13_4.368_cQq11_-3.748_cQu1_-3.331_cQd1_1.681_ctq1_0.02_ctu1_3.467_ctd1_11.988'>set param_card dim62f 24 -0.16 # orig: 0.7
set param_card dim64f 1 8.752 # orig: 9.0
set param_card dim64f 2 -10.353 # orig: 7.0
set param_card dim64f 3 13.772 # orig: 9.5
set param_card dim64f 4 1.97 # orig: 7.0
set param_card dim64f 6 -19.74 # orig: 12.0
set param_card dim64f 7 -17.022 # orig: 9.0
set param_card dim64f 8 -15.946 # orig: 12.4
set param_card dim64f 10 4.368 # orig: 4.1
set param_card dim64f 11 -3.748 # orig: 4.2
set param_card dim64f 12 -3.331 # orig: 5.5
set param_card dim64f 13 0.02 # orig: 4.4
set param_card dim64f 14 1.681 # orig: 7.0
set param_card dim64f 16 3.467 # orig: 5.4
set param_card dim64f 17 11.988 # orig: 7.0
</weight>
<weight id='EFTrwgt159_ctG_-0.773_cQq83_-5.383_cQq81_11.182_cQu8_14.253_cQd8_22.486_ctq8_4.123_ctu8_16.717_ctd8_16.197_cQq13_7.633_cQq11_3.65_cQu1_3.518_cQd1_4.557_ctq1_0.213_ctu1_-8.115_ctd1_5.813'>set param_card dim62f 24 -0.773 # orig: 0.7
set param_card dim64f 1 -5.383 # orig: 9.0
set param_card dim64f 2 11.182 # orig: 7.0
set param_card dim64f 3 14.253 # orig: 9.5
set param_card dim64f 4 4.123 # orig: 7.0
set param_card dim64f 6 22.486 # orig: 12.0
set param_card dim64f 7 16.717 # orig: 9.0
set param_card dim64f 8 16.197 # orig: 12.4
set param_card dim64f 10 7.633 # orig: 4.1
set param_card dim64f 11 3.65 # orig: 4.2
set param_card dim64f 12 3.518 # orig: 5.5
set param_card dim64f 13 0.213 # orig: 4.4
set param_card dim64f 14 4.557 # orig: 7.0
set param_card dim64f 16 -8.115 # orig: 5.4
set param_card dim64f 17 5.813 # orig: 7.0
</weight>
<weight id='EFTrwgt160_ctG_-0.954_cQq83_13.029_cQq81_10.509_cQu8_2.914_cQd8_-7.008_ctq8_3.519_ctu8_-4.882_ctd8_-8.587_cQq13_-4.654_cQq11_6.741_cQu1_-8.034_cQd1_8.536_ctq1_7.776_ctu1_8.243_ctd1_-6.062'>set param_card dim62f 24 -0.954 # orig: 0.7
set param_card dim64f 1 13.029 # orig: 9.0
set param_card dim64f 2 10.509 # orig: 7.0
set param_card dim64f 3 2.914 # orig: 9.5
set param_card dim64f 4 3.519 # orig: 7.0
set param_card dim64f 6 -7.008 # orig: 12.0
set param_card dim64f 7 -4.882 # orig: 9.0
set param_card dim64f 8 -8.587 # orig: 12.4
set param_card dim64f 10 -4.654 # orig: 4.1
set param_card dim64f 11 6.741 # orig: 4.2
set param_card dim64f 12 -8.034 # orig: 5.5
set param_card dim64f 13 7.776 # orig: 4.4
set param_card dim64f 14 8.536 # orig: 7.0
set param_card dim64f 16 8.243 # orig: 5.4
set param_card dim64f 17 -6.062 # orig: 7.0
</weight>
<weight id='EFTrwgt161_ctG_0.783_cQq83_-0.823_cQq81_-10.667_cQu8_6.458_cQd8_-6.599_ctq8_5.205_ctu8_-17.575_ctd8_-8.783_cQq13_-6.096_cQq11_-7.308_cQu1_-4.219_cQd1_4.937_ctq1_-6.352_ctu1_4.953_ctd1_3.017'>set param_card dim62f 24 0.783 # orig: 0.7
set param_card dim64f 1 -0.823 # orig: 9.0
set param_card dim64f 2 -10.667 # orig: 7.0
set param_card dim64f 3 6.458 # orig: 9.5
set param_card dim64f 4 5.205 # orig: 7.0
set param_card dim64f 6 -6.599 # orig: 12.0
set param_card dim64f 7 -17.575 # orig: 9.0
set param_card dim64f 8 -8.783 # orig: 12.4
set param_card dim64f 10 -6.096 # orig: 4.1
set param_card dim64f 11 -7.308 # orig: 4.2
set param_card dim64f 12 -4.219 # orig: 5.5
set param_card dim64f 13 -6.352 # orig: 4.4
set param_card dim64f 14 4.937 # orig: 7.0
set param_card dim64f 16 4.953 # orig: 5.4
set param_card dim64f 17 3.017 # orig: 7.0
</weight>
<weight id='EFTrwgt162_ctG_-0.671_cQq83_16.815_cQq81_-12.317_cQu8_1.448_cQd8_10.899_ctq8_4.606_ctu8_-11.122_ctd8_-10.201_cQq13_4.82_cQq11_3.575_cQu1_-8.572_cQd1_11.857_ctq1_5.276_ctu1_-9.587_ctd1_8.531'>set param_card dim62f 24 -0.671 # orig: 0.7
set param_card dim64f 1 16.815 # orig: 9.0
set param_card dim64f 2 -12.317 # orig: 7.0
set param_card dim64f 3 1.448 # orig: 9.5
set param_card dim64f 4 4.606 # orig: 7.0
set param_card dim64f 6 10.899 # orig: 12.0
set param_card dim64f 7 -11.122 # orig: 9.0
set param_card dim64f 8 -10.201 # orig: 12.4
set param_card dim64f 10 4.82 # orig: 4.1
set param_card dim64f 11 3.575 # orig: 4.2
set param_card dim64f 12 -8.572 # orig: 5.5
set param_card dim64f 13 5.276 # orig: 4.4
set param_card dim64f 14 11.857 # orig: 7.0
set param_card dim64f 16 -9.587 # orig: 5.4
set param_card dim64f 17 8.531 # orig: 7.0
</weight>
<weight id='EFTrwgt163_ctG_1.242_cQq83_16.122_cQq81_-8.636_cQu8_-5.852_cQd8_7.335_ctq8_-5.7_ctu8_-13.545_ctd8_24.321_cQq13_5.114_cQq11_-6.63_cQu1_-4.255_cQd1_8.437_ctq1_-6.875_ctu1_9.128_ctd1_2.843'>set param_card dim62f 24 1.242 # orig: 0.7
set param_card dim64f 1 16.122 # orig: 9.0
set param_card dim64f 2 -8.636 # orig: 7.0
set param_card dim64f 3 -5.852 # orig: 9.5
set param_card dim64f 4 -5.7 # orig: 7.0
set param_card dim64f 6 7.335 # orig: 12.0
set param_card dim64f 7 -13.545 # orig: 9.0
set param_card dim64f 8 24.321 # orig: 12.4
set param_card dim64f 10 5.114 # orig: 4.1
set param_card dim64f 11 -6.63 # orig: 4.2
set param_card dim64f 12 -4.255 # orig: 5.5
set param_card dim64f 13 -6.875 # orig: 4.4
set param_card dim64f 14 8.437 # orig: 7.0
set param_card dim64f 16 9.128 # orig: 5.4
set param_card dim64f 17 2.843 # orig: 7.0
</weight>
<weight id='EFTrwgt164_ctG_1.092_cQq83_-5.055_cQq81_-8.599_cQu8_4.203_cQd8_-7.68_ctq8_-11.588_ctu8_0.276_ctd8_17.336_cQq13_-7.727_cQq11_-5.834_cQu1_-7.894_cQd1_-13.963_ctq1_8.207_ctu1_2.956_ctd1_-11.592'>set param_card dim62f 24 1.092 # orig: 0.7
set param_card dim64f 1 -5.055 # orig: 9.0
set param_card dim64f 2 -8.599 # orig: 7.0
set param_card dim64f 3 4.203 # orig: 9.5
set param_card dim64f 4 -11.588 # orig: 7.0
set param_card dim64f 6 -7.68 # orig: 12.0
set param_card dim64f 7 0.276 # orig: 9.0
set param_card dim64f 8 17.336 # orig: 12.4
set param_card dim64f 10 -7.727 # orig: 4.1
set param_card dim64f 11 -5.834 # orig: 4.2
set param_card dim64f 12 -7.894 # orig: 5.5
set param_card dim64f 13 8.207 # orig: 4.4
set param_card dim64f 14 -13.963 # orig: 7.0
set param_card dim64f 16 2.956 # orig: 5.4
set param_card dim64f 17 -11.592 # orig: 7.0
</weight>
<weight id='EFTrwgt165_ctG_0.595_cQq83_4.636_cQq81_-0.11_cQu8_-0.581_cQd8_-20.832_ctq8_-0.558_ctu8_4.659_ctd8_14.601_cQq13_-7.948_cQq11_3.039_cQu1_4.976_cQd1_-0.906_ctq1_-5.244_ctu1_-2.665_ctd1_-11.849'>set param_card dim62f 24 0.595 # orig: 0.7
set param_card dim64f 1 4.636 # orig: 9.0
set param_card dim64f 2 -0.11 # orig: 7.0
set param_card dim64f 3 -0.581 # orig: 9.5
set param_card dim64f 4 -0.558 # orig: 7.0
set param_card dim64f 6 -20.832 # orig: 12.0
set param_card dim64f 7 4.659 # orig: 9.0
set param_card dim64f 8 14.601 # orig: 12.4
set param_card dim64f 10 -7.948 # orig: 4.1
set param_card dim64f 11 3.039 # orig: 4.2
set param_card dim64f 12 4.976 # orig: 5.5
set param_card dim64f 13 -5.244 # orig: 4.4
set param_card dim64f 14 -0.906 # orig: 7.0
set param_card dim64f 16 -2.665 # orig: 5.4
set param_card dim64f 17 -11.849 # orig: 7.0
</weight>
<weight id='EFTrwgt166_ctG_1.216_cQq83_5.127_cQq81_1.484_cQu8_12.31_cQd8_15.332_ctq8_-1.18_ctu8_2.062_ctd8_7.64_cQq13_-3.138_cQq11_3.748_cQu1_-2.564_cQd1_-4.289_ctq1_4.03_ctu1_7.302_ctd1_-7.704'>set param_card dim62f 24 1.216 # orig: 0.7
set param_card dim64f 1 5.127 # orig: 9.0
set param_card dim64f 2 1.484 # orig: 7.0
set param_card dim64f 3 12.31 # orig: 9.5
set param_card dim64f 4 -1.18 # orig: 7.0
set param_card dim64f 6 15.332 # orig: 12.0
set param_card dim64f 7 2.062 # orig: 9.0
set param_card dim64f 8 7.64 # orig: 12.4
set param_card dim64f 10 -3.138 # orig: 4.1
set param_card dim64f 11 3.748 # orig: 4.2
set param_card dim64f 12 -2.564 # orig: 5.5
set param_card dim64f 13 4.03 # orig: 4.4
set param_card dim64f 14 -4.289 # orig: 7.0
set param_card dim64f 16 7.302 # orig: 5.4
set param_card dim64f 17 -7.704 # orig: 7.0
</weight>
<weight id='EFTrwgt167_ctG_1.033_cQq83_5.72_cQq81_-1.985_cQu8_-0.401_cQd8_0.76_ctq8_-4.788_ctu8_5.904_ctd8_-7.804_cQq13_5.806_cQq11_-6.292_cQu1_-1.952_cQd1_-8.265_ctq1_2.846_ctu1_-6.057_ctd1_7.749'>set param_card dim62f 24 1.033 # orig: 0.7
set param_card dim64f 1 5.72 # orig: 9.0
set param_card dim64f 2 -1.985 # orig: 7.0
set param_card dim64f 3 -0.401 # orig: 9.5
set param_card dim64f 4 -4.788 # orig: 7.0
set param_card dim64f 6 0.76 # orig: 12.0
set param_card dim64f 7 5.904 # orig: 9.0
set param_card dim64f 8 -7.804 # orig: 12.4
set param_card dim64f 10 5.806 # orig: 4.1
set param_card dim64f 11 -6.292 # orig: 4.2
set param_card dim64f 12 -1.952 # orig: 5.5
set param_card dim64f 13 2.846 # orig: 4.4
set param_card dim64f 14 -8.265 # orig: 7.0
set param_card dim64f 16 -6.057 # orig: 5.4
set param_card dim64f 17 7.749 # orig: 7.0
</weight>
<weight id='EFTrwgt168_ctG_-0.37_cQq83_17.55_cQq81_9.651_cQu8_-15.831_cQd8_-2.866_ctq8_-6.609_ctu8_-14.397_ctd8_5.753_cQq13_5.663_cQq11_-8.112_cQu1_-9.915_cQd1_6.099_ctq1_-0.019_ctu1_-1.021_ctd1_-5.252'>set param_card dim62f 24 -0.37 # orig: 0.7
set param_card dim64f 1 17.55 # orig: 9.0
set param_card dim64f 2 9.651 # orig: 7.0
set param_card dim64f 3 -15.831 # orig: 9.5
set param_card dim64f 4 -6.609 # orig: 7.0
set param_card dim64f 6 -2.866 # orig: 12.0
set param_card dim64f 7 -14.397 # orig: 9.0
set param_card dim64f 8 5.753 # orig: 12.4
set param_card dim64f 10 5.663 # orig: 4.1
set param_card dim64f 11 -8.112 # orig: 4.2
set param_card dim64f 12 -9.915 # orig: 5.5
set param_card dim64f 13 -0.019 # orig: 4.4
set param_card dim64f 14 6.099 # orig: 7.0
set param_card dim64f 16 -1.021 # orig: 5.4
set param_card dim64f 17 -5.252 # orig: 7.0
</weight>
<weight id='EFTrwgt169_ctG_-1.172_cQq83_17.994_cQq81_-4.282_cQu8_-10.241_cQd8_-2.149_ctq8_-9.811_ctu8_-0.052_ctd8_20.563_cQq13_0.796_cQq11_-3.46_cQu1_8.811_cQd1_-11.665_ctq1_2.613_ctu1_-2.034_ctd1_-11.62'>set param_card dim62f 24 -1.172 # orig: 0.7
set param_card dim64f 1 17.994 # orig: 9.0
set param_card dim64f 2 -4.282 # orig: 7.0
set param_card dim64f 3 -10.241 # orig: 9.5
set param_card dim64f 4 -9.811 # orig: 7.0
set param_card dim64f 6 -2.149 # orig: 12.0
set param_card dim64f 7 -0.052 # orig: 9.0
set param_card dim64f 8 20.563 # orig: 12.4
set param_card dim64f 10 0.796 # orig: 4.1
set param_card dim64f 11 -3.46 # orig: 4.2
set param_card dim64f 12 8.811 # orig: 5.5
set param_card dim64f 13 2.613 # orig: 4.4
set param_card dim64f 14 -11.665 # orig: 7.0
set param_card dim64f 16 -2.034 # orig: 5.4
set param_card dim64f 17 -11.62 # orig: 7.0
</weight>
<weight id='EFTrwgt170_ctG_-1.173_cQq83_-5.111_cQq81_9.87_cQu8_12.84_cQd8_15.747_ctq8_6.145_ctu8_16.166_ctd8_21.901_cQq13_1.621_cQq11_-4.815_cQu1_-6.967_cQd1_-9.672_ctq1_8.708_ctu1_-3.905_ctd1_5.596'>set param_card dim62f 24 -1.173 # orig: 0.7
set param_card dim64f 1 -5.111 # orig: 9.0
set param_card dim64f 2 9.87 # orig: 7.0
set param_card dim64f 3 12.84 # orig: 9.5
set param_card dim64f 4 6.145 # orig: 7.0
set param_card dim64f 6 15.747 # orig: 12.0
set param_card dim64f 7 16.166 # orig: 9.0
set param_card dim64f 8 21.901 # orig: 12.4
set param_card dim64f 10 1.621 # orig: 4.1
set param_card dim64f 11 -4.815 # orig: 4.2
set param_card dim64f 12 -6.967 # orig: 5.5
set param_card dim64f 13 8.708 # orig: 4.4
set param_card dim64f 14 -9.672 # orig: 7.0
set param_card dim64f 16 -3.905 # orig: 5.4
set param_card dim64f 17 5.596 # orig: 7.0
</weight>
<weight id='EFTrwgt171_ctG_-0.487_cQq83_-3.728_cQq81_-2.089_cQu8_-8.617_cQd8_-3.165_ctq8_5.221_ctu8_-6.935_ctd8_-10.922_cQq13_2.93_cQq11_-3.943_cQu1_0.026_cQd1_10.454_ctq1_1.412_ctu1_-4.837_ctd1_4.419'>set param_card dim62f 24 -0.487 # orig: 0.7
set param_card dim64f 1 -3.728 # orig: 9.0
set param_card dim64f 2 -2.089 # orig: 7.0
set param_card dim64f 3 -8.617 # orig: 9.5
set param_card dim64f 4 5.221 # orig: 7.0
set param_card dim64f 6 -3.165 # orig: 12.0
set param_card dim64f 7 -6.935 # orig: 9.0
set param_card dim64f 8 -10.922 # orig: 12.4
set param_card dim64f 10 2.93 # orig: 4.1
set param_card dim64f 11 -3.943 # orig: 4.2
set param_card dim64f 12 0.026 # orig: 5.5
set param_card dim64f 13 1.412 # orig: 4.4
set param_card dim64f 14 10.454 # orig: 7.0
set param_card dim64f 16 -4.837 # orig: 5.4
set param_card dim64f 17 4.419 # orig: 7.0
</weight>
<weight id='EFTrwgt172_ctG_0.395_cQq83_8.99_cQq81_-3.002_cQu8_-13.401_cQd8_-8.393_ctq8_6.268_ctu8_10.287_ctd8_3.578_cQq13_-0.326_cQq11_0.491_cQu1_-1.452_cQd1_0.292_ctq1_2.055_ctu1_8.333_ctd1_-11.0'>set param_card dim62f 24 0.395 # orig: 0.7
set param_card dim64f 1 8.99 # orig: 9.0
set param_card dim64f 2 -3.002 # orig: 7.0
set param_card dim64f 3 -13.401 # orig: 9.5
set param_card dim64f 4 6.268 # orig: 7.0
set param_card dim64f 6 -8.393 # orig: 12.0
set param_card dim64f 7 10.287 # orig: 9.0
set param_card dim64f 8 3.578 # orig: 12.4
set param_card dim64f 10 -0.326 # orig: 4.1
set param_card dim64f 11 0.491 # orig: 4.2
set param_card dim64f 12 -1.452 # orig: 5.5
set param_card dim64f 13 2.055 # orig: 4.4
set param_card dim64f 14 0.292 # orig: 7.0
set param_card dim64f 16 8.333 # orig: 5.4
set param_card dim64f 17 -11.0 # orig: 7.0
</weight>
<weight id='EFTrwgt173_ctG_-0.268_cQq83_-9.609_cQq81_-10.088_cQu8_-10.258_cQd8_2.411_ctq8_-9.923_ctu8_-12.813_ctd8_-11.549_cQq13_-0.115_cQq11_0.881_cQu1_3.83_cQd1_-7.017_ctq1_-5.831_ctu1_5.916_ctd1_9.799'>set param_card dim62f 24 -0.268 # orig: 0.7
set param_card dim64f 1 -9.609 # orig: 9.0
set param_card dim64f 2 -10.088 # orig: 7.0
set param_card dim64f 3 -10.258 # orig: 9.5
set param_card dim64f 4 -9.923 # orig: 7.0
set param_card dim64f 6 2.411 # orig: 12.0
set param_card dim64f 7 -12.813 # orig: 9.0
set param_card dim64f 8 -11.549 # orig: 12.4
set param_card dim64f 10 -0.115 # orig: 4.1
set param_card dim64f 11 0.881 # orig: 4.2
set param_card dim64f 12 3.83 # orig: 5.5
set param_card dim64f 13 -5.831 # orig: 4.4
set param_card dim64f 14 -7.017 # orig: 7.0
set param_card dim64f 16 5.916 # orig: 5.4
set param_card dim64f 17 9.799 # orig: 7.0
</weight>
<weight id='EFTrwgt174_ctG_0.0_cQq83_14.255_cQq81_-3.162_cQu8_7.632_cQd8_8.455_ctq8_-10.706_ctu8_12.248_ctd8_-7.818_cQq13_-7.674_cQq11_3.169_cQu1_-10.606_cQd1_10.997_ctq1_7.461_ctu1_-1.024_ctd1_-12.78'>set param_card dim62f 24 0.0 # orig: 0.7
set param_card dim64f 1 14.255 # orig: 9.0
set param_card dim64f 2 -3.162 # orig: 7.0
set param_card dim64f 3 7.632 # orig: 9.5
set param_card dim64f 4 -10.706 # orig: 7.0
set param_card dim64f 6 8.455 # orig: 12.0
set param_card dim64f 7 12.248 # orig: 9.0
set param_card dim64f 8 -7.818 # orig: 12.4
set param_card dim64f 10 -7.674 # orig: 4.1
set param_card dim64f 11 3.169 # orig: 4.2
set param_card dim64f 12 -10.606 # orig: 5.5
set param_card dim64f 13 7.461 # orig: 4.4
set param_card dim64f 14 10.997 # orig: 7.0
set param_card dim64f 16 -1.024 # orig: 5.4
set param_card dim64f 17 -12.78 # orig: 7.0
</weight>
<weight id='EFTrwgt175_ctG_0.97_cQq83_0.362_cQq81_12.475_cQu8_-6.155_cQd8_12.941_ctq8_-11.631_ctu8_12.793_ctd8_5.998_cQq13_5.415_cQq11_3.61_cQu1_3.086_cQd1_11.222_ctq1_-7.83_ctu1_7.604_ctd1_-6.316'>set param_card dim62f 24 0.97 # orig: 0.7
set param_card dim64f 1 0.362 # orig: 9.0
set param_card dim64f 2 12.475 # orig: 7.0
set param_card dim64f 3 -6.155 # orig: 9.5
set param_card dim64f 4 -11.631 # orig: 7.0
set param_card dim64f 6 12.941 # orig: 12.0
set param_card dim64f 7 12.793 # orig: 9.0
set param_card dim64f 8 5.998 # orig: 12.4
set param_card dim64f 10 5.415 # orig: 4.1
set param_card dim64f 11 3.61 # orig: 4.2
set param_card dim64f 12 3.086 # orig: 5.5
set param_card dim64f 13 -7.83 # orig: 4.4
set param_card dim64f 14 11.222 # orig: 7.0
set param_card dim64f 16 7.604 # orig: 5.4
set param_card dim64f 17 -6.316 # orig: 7.0
</weight>
<weight id='EFTrwgt176_ctG_-0.671_cQq83_9.217_cQq81_12.675_cQu8_-5.504_cQd8_11.909_ctq8_-13.928_ctu8_3.526_ctd8_12.153_cQq13_6.419_cQq11_-4.462_cQu1_-8.472_cQd1_-6.853_ctq1_-5.497_ctu1_9.273_ctd1_7.938'>set param_card dim62f 24 -0.671 # orig: 0.7
set param_card dim64f 1 9.217 # orig: 9.0
set param_card dim64f 2 12.675 # orig: 7.0
set param_card dim64f 3 -5.504 # orig: 9.5
set param_card dim64f 4 -13.928 # orig: 7.0
set param_card dim64f 6 11.909 # orig: 12.0
set param_card dim64f 7 3.526 # orig: 9.0
set param_card dim64f 8 12.153 # orig: 12.4
set param_card dim64f 10 6.419 # orig: 4.1
set param_card dim64f 11 -4.462 # orig: 4.2
set param_card dim64f 12 -8.472 # orig: 5.5
set param_card dim64f 13 -5.497 # orig: 4.4
set param_card dim64f 14 -6.853 # orig: 7.0
set param_card dim64f 16 9.273 # orig: 5.4
set param_card dim64f 17 7.938 # orig: 7.0
</weight>
<weight id='EFTrwgt177_ctG_-0.305_cQq83_7.149_cQq81_-4.524_cQu8_-16.678_cQd8_-16.144_ctq8_5.076_ctu8_-17.746_ctd8_16.893_cQq13_4.267_cQq11_2.618_cQu1_4.353_cQd1_8.975_ctq1_4.66_ctu1_3.456_ctd1_-10.007'>set param_card dim62f 24 -0.305 # orig: 0.7
set param_card dim64f 1 7.149 # orig: 9.0
set param_card dim64f 2 -4.524 # orig: 7.0
set param_card dim64f 3 -16.678 # orig: 9.5
set param_card dim64f 4 5.076 # orig: 7.0
set param_card dim64f 6 -16.144 # orig: 12.0
set param_card dim64f 7 -17.746 # orig: 9.0
set param_card dim64f 8 16.893 # orig: 12.4
set param_card dim64f 10 4.267 # orig: 4.1
set param_card dim64f 11 2.618 # orig: 4.2
set param_card dim64f 12 4.353 # orig: 5.5
set param_card dim64f 13 4.66 # orig: 4.4
set param_card dim64f 14 8.975 # orig: 7.0
set param_card dim64f 16 3.456 # orig: 5.4
set param_card dim64f 17 -10.007 # orig: 7.0
</weight>
<weight id='EFTrwgt178_ctG_-0.022_cQq83_13.793_cQq81_-0.578_cQu8_13.877_cQd8_-10.596_ctq8_10.476_ctu8_5.651_ctd8_8.781_cQq13_7.781_cQq11_-0.157_cQu1_-3.425_cQd1_10.096_ctq1_-6.687_ctu1_-1.677_ctd1_2.543'>set param_card dim62f 24 -0.022 # orig: 0.7
set param_card dim64f 1 13.793 # orig: 9.0
set param_card dim64f 2 -0.578 # orig: 7.0
set param_card dim64f 3 13.877 # orig: 9.5
set param_card dim64f 4 10.476 # orig: 7.0
set param_card dim64f 6 -10.596 # orig: 12.0
set param_card dim64f 7 5.651 # orig: 9.0
set param_card dim64f 8 8.781 # orig: 12.4
set param_card dim64f 10 7.781 # orig: 4.1
set param_card dim64f 11 -0.157 # orig: 4.2
set param_card dim64f 12 -3.425 # orig: 5.5
set param_card dim64f 13 -6.687 # orig: 4.4
set param_card dim64f 14 10.096 # orig: 7.0
set param_card dim64f 16 -1.677 # orig: 5.4
set param_card dim64f 17 2.543 # orig: 7.0
</weight>
<weight id='EFTrwgt179_ctG_0.497_cQq83_-6.916_cQq81_13.035_cQu8_-5.975_cQd8_12.419_ctq8_5.679_ctu8_-2.58_ctd8_-17.339_cQq13_-3.741_cQq11_-1.097_cQu1_-5.551_cQd1_-0.983_ctq1_-5.692_ctu1_4.263_ctd1_4.456'>set param_card dim62f 24 0.497 # orig: 0.7
set param_card dim64f 1 -6.916 # orig: 9.0
set param_card dim64f 2 13.035 # orig: 7.0
set param_card dim64f 3 -5.975 # orig: 9.5
set param_card dim64f 4 5.679 # orig: 7.0
set param_card dim64f 6 12.419 # orig: 12.0
set param_card dim64f 7 -2.58 # orig: 9.0
set param_card dim64f 8 -17.339 # orig: 12.4
set param_card dim64f 10 -3.741 # orig: 4.1
set param_card dim64f 11 -1.097 # orig: 4.2
set param_card dim64f 12 -5.551 # orig: 5.5
set param_card dim64f 13 -5.692 # orig: 4.4
set param_card dim64f 14 -0.983 # orig: 7.0
set param_card dim64f 16 4.263 # orig: 5.4
set param_card dim64f 17 4.456 # orig: 7.0
</weight>
<weight id='sm_point'>set param_card dim62f 24 0.0 # orig: 0.7
set param_card dim64f 1 0.0 # orig: 9.0
set param_card dim64f 2 0.0 # orig: 7.0
set param_card dim64f 3 0.0 # orig: 9.5
set param_card dim64f 4 0.0 # orig: 7.0
set param_card dim64f 6 0.0 # orig: 12.0
set param_card dim64f 7 0.0 # orig: 9.0
set param_card dim64f 8 0.0 # orig: 12.4
set param_card dim64f 10 0.0 # orig: 4.1
set param_card dim64f 11 0.0 # orig: 4.2
set param_card dim64f 12 0.0 # orig: 5.5
set param_card dim64f 13 0.0 # orig: 4.4
set param_card dim64f 14 0.0 # orig: 7.0
set param_card dim64f 16 0.0 # orig: 5.4
set param_card dim64f 17 0.0 # orig: 7.0
</weight>
</weightgroup>
<weight id="1001" MUR="1.0" MUF="1.0" PDF="325300" >  </weight>
<weightgroup name="Central scale variation" combine="envelope">
<weight id="1002" MUR="1.0" MUF="1.0" DYN_SCALE="1" PDF="325300" > dyn_scale_choice=sum pt  </weight>
<weight id="1003" MUR="1.0" MUF="1.0" DYN_SCALE="2" PDF="325300" > dyn_scale_choice=HT  </weight>
<weight id="1004" MUR="1.0" MUF="1.0" DYN_SCALE="3" PDF="325300" > dyn_scale_choice=HT/2  </weight>
<weight id="1005" MUR="1.0" MUF="1.0" DYN_SCALE="4" PDF="325300" > dyn_scale_choice=sqrts  </weight>
<weight id="1006" MUR="2.0" MUF="1.0" PDF="325300" > MUR=2.0  </weight>
<weight id="1007" MUR="2.0" MUF="1.0" DYN_SCALE="1" PDF="325300" > MUR=2.0 dyn_scale_choice=sum pt  </weight>
<weight id="1008" MUR="2.0" MUF="1.0" DYN_SCALE="2" PDF="325300" > MUR=2.0 dyn_scale_choice=HT  </weight>
<weight id="1009" MUR="2.0" MUF="1.0" DYN_SCALE="3" PDF="325300" > MUR=2.0 dyn_scale_choice=HT/2  </weight>
<weight id="1010" MUR="2.0" MUF="1.0" DYN_SCALE="4" PDF="325300" > MUR=2.0 dyn_scale_choice=sqrts  </weight>
<weight id="1011" MUR="0.5" MUF="1.0" PDF="325300" > MUR=0.5  </weight>
<weight id="1012" MUR="0.5" MUF="1.0" DYN_SCALE="1" PDF="325300" > MUR=0.5 dyn_scale_choice=sum pt  </weight>
<weight id="1013" MUR="0.5" MUF="1.0" DYN_SCALE="2" PDF="325300" > MUR=0.5 dyn_scale_choice=HT  </weight>
<weight id="1014" MUR="0.5" MUF="1.0" DYN_SCALE="3" PDF="325300" > MUR=0.5 dyn_scale_choice=HT/2  </weight>
<weight id="1015" MUR="0.5" MUF="1.0" DYN_SCALE="4" PDF="325300" > MUR=0.5 dyn_scale_choice=sqrts  </weight>
<weight id="1016" MUR="1.0" MUF="2.0" PDF="325300" > MUF=2.0  </weight>
<weight id="1017" MUR="1.0" MUF="2.0" DYN_SCALE="1" PDF="325300" > MUF=2.0 dyn_scale_choice=sum pt  </weight>
<weight id="1018" MUR="1.0" MUF="2.0" DYN_SCALE="2" PDF="325300" > MUF=2.0 dyn_scale_choice=HT  </weight>
<weight id="1019" MUR="1.0" MUF="2.0" DYN_SCALE="3" PDF="325300" > MUF=2.0 dyn_scale_choice=HT/2  </weight>
<weight id="1020" MUR="1.0" MUF="2.0" DYN_SCALE="4" PDF="325300" > MUF=2.0 dyn_scale_choice=sqrts  </weight>
<weight id="1021" MUR="2.0" MUF="2.0" PDF="325300" > MUR=2.0 MUF=2.0  </weight>
<weight id="1022" MUR="2.0" MUF="2.0" DYN_SCALE="1" PDF="325300" > MUR=2.0 MUF=2.0 dyn_scale_choice=sum pt  </weight>
<weight id="1023" MUR="2.0" MUF="2.0" DYN_SCALE="2" PDF="325300" > MUR=2.0 MUF=2.0 dyn_scale_choice=HT  </weight>
<weight id="1024" MUR="2.0" MUF="2.0" DYN_SCALE="3" PDF="325300" > MUR=2.0 MUF=2.0 dyn_scale_choice=HT/2  </weight>
<weight id="1025" MUR="2.0" MUF="2.0" DYN_SCALE="4" PDF="325300" > MUR=2.0 MUF=2.0 dyn_scale_choice=sqrts  </weight>
<weight id="1026" MUR="0.5" MUF="2.0" PDF="325300" > MUR=0.5 MUF=2.0  </weight>
<weight id="1027" MUR="0.5" MUF="2.0" DYN_SCALE="1" PDF="325300" > MUR=0.5 MUF=2.0 dyn_scale_choice=sum pt  </weight>
<weight id="1028" MUR="0.5" MUF="2.0" DYN_SCALE="2" PDF="325300" > MUR=0.5 MUF=2.0 dyn_scale_choice=HT  </weight>
<weight id="1029" MUR="0.5" MUF="2.0" DYN_SCALE="3" PDF="325300" > MUR=0.5 MUF=2.0 dyn_scale_choice=HT/2  </weight>
<weight id="1030" MUR="0.5" MUF="2.0" DYN_SCALE="4" PDF="325300" > MUR=0.5 MUF=2.0 dyn_scale_choice=sqrts  </weight>
<weight id="1031" MUR="1.0" MUF="0.5" PDF="325300" > MUF=0.5  </weight>
<weight id="1032" MUR="1.0" MUF="0.5" DYN_SCALE="1" PDF="325300" > MUF=0.5 dyn_scale_choice=sum pt  </weight>
<weight id="1033" MUR="1.0" MUF="0.5" DYN_SCALE="2" PDF="325300" > MUF=0.5 dyn_scale_choice=HT  </weight>
<weight id="1034" MUR="1.0" MUF="0.5" DYN_SCALE="3" PDF="325300" > MUF=0.5 dyn_scale_choice=HT/2  </weight>
<weight id="1035" MUR="1.0" MUF="0.5" DYN_SCALE="4" PDF="325300" > MUF=0.5 dyn_scale_choice=sqrts  </weight>
<weight id="1036" MUR="2.0" MUF="0.5" PDF="325300" > MUR=2.0 MUF=0.5  </weight>
<weight id="1037" MUR="2.0" MUF="0.5" DYN_SCALE="1" PDF="325300" > MUR=2.0 MUF=0.5 dyn_scale_choice=sum pt  </weight>
<weight id="1038" MUR="2.0" MUF="0.5" DYN_SCALE="2" PDF="325300" > MUR=2.0 MUF=0.5 dyn_scale_choice=HT  </weight>
<weight id="1039" MUR="2.0" MUF="0.5" DYN_SCALE="3" PDF="325300" > MUR=2.0 MUF=0.5 dyn_scale_choice=HT/2  </weight>
<weight id="1040" MUR="2.0" MUF="0.5" DYN_SCALE="4" PDF="325300" > MUR=2.0 MUF=0.5 dyn_scale_choice=sqrts  </weight>
<weight id="1041" MUR="0.5" MUF="0.5" PDF="325300" > MUR=0.5 MUF=0.5  </weight>
<weight id="1042" MUR="0.5" MUF="0.5" DYN_SCALE="1" PDF="325300" > MUR=0.5 MUF=0.5 dyn_scale_choice=sum pt  </weight>
<weight id="1043" MUR="0.5" MUF="0.5" DYN_SCALE="2" PDF="325300" > MUR=0.5 MUF=0.5 dyn_scale_choice=HT  </weight>
<weight id="1044" MUR="0.5" MUF="0.5" DYN_SCALE="3" PDF="325300" > MUR=0.5 MUF=0.5 dyn_scale_choice=HT/2  </weight>
<weight id="1045" MUR="0.5" MUF="0.5" DYN_SCALE="4" PDF="325300" > MUR=0.5 MUF=0.5 dyn_scale_choice=sqrts  </weight>
</weightgroup> # scale
<weightgroup name="Emission scale variation" combine="envelope">
<weight id="1046" MUR="1.0" MUF="1.0" ALPSFACT="0.5" PDF="325300" > alpsfact=0.5  </weight>
<weight id="1047" MUR="1.0" MUF="1.0" ALPSFACT="2.0" PDF="325300" > alpsfact=2.0  </weight>
</weightgroup> # ALPS
<weightgroup name="NNPDF31_nnlo_as_0118_mc_hessian_pdfas" combine="symmhessian+as"> # 325300: NNPDF3.1 NNLO global fit, alphas(MZ)=0.118. mem=0 ; average on replicas (setting negative replicas to zero); mem=1-100 ; PDF eig.; mem=101 ; central value (forced positive definite) Alphas(MZ)=0.116; mem=102 ; central value (forced positive definite) Alphas(MZ)=0.120
<weight id="1048" MUR="1.0" MUF="1.0" PDF="325300" >  </weight>
<weight id="1049" MUR="1.0" MUF="1.0" PDF="325301" > PDF=325300 MemberID=1 </weight>
<weight id="1050" MUR="1.0" MUF="1.0" PDF="325302" > PDF=325300 MemberID=2 </weight>
<weight id="1051" MUR="1.0" MUF="1.0" PDF="325303" > PDF=325300 MemberID=3 </weight>
<weight id="1052" MUR="1.0" MUF="1.0" PDF="325304" > PDF=325300 MemberID=4 </weight>
<weight id="1053" MUR="1.0" MUF="1.0" PDF="325305" > PDF=325300 MemberID=5 </weight>
<weight id="1054" MUR="1.0" MUF="1.0" PDF="325306" > PDF=325300 MemberID=6 </weight>
<weight id="1055" MUR="1.0" MUF="1.0" PDF="325307" > PDF=325300 MemberID=7 </weight>
<weight id="1056" MUR="1.0" MUF="1.0" PDF="325308" > PDF=325300 MemberID=8 </weight>
<weight id="1057" MUR="1.0" MUF="1.0" PDF="325309" > PDF=325300 MemberID=9 </weight>
<weight id="1058" MUR="1.0" MUF="1.0" PDF="325310" > PDF=325300 MemberID=10 </weight>
<weight id="1059" MUR="1.0" MUF="1.0" PDF="325311" > PDF=325300 MemberID=11 </weight>
<weight id="1060" MUR="1.0" MUF="1.0" PDF="325312" > PDF=325300 MemberID=12 </weight>
<weight id="1061" MUR="1.0" MUF="1.0" PDF="325313" > PDF=325300 MemberID=13 </weight>
<weight id="1062" MUR="1.0" MUF="1.0" PDF="325314" > PDF=325300 MemberID=14 </weight>
<weight id="1063" MUR="1.0" MUF="1.0" PDF="325315" > PDF=325300 MemberID=15 </weight>
<weight id="1064" MUR="1.0" MUF="1.0" PDF="325316" > PDF=325300 MemberID=16 </weight>
<weight id="1065" MUR="1.0" MUF="1.0" PDF="325317" > PDF=325300 MemberID=17 </weight>
<weight id="1066" MUR="1.0" MUF="1.0" PDF="325318" > PDF=325300 MemberID=18 </weight>
<weight id="1067" MUR="1.0" MUF="1.0" PDF="325319" > PDF=325300 MemberID=19 </weight>
<weight id="1068" MUR="1.0" MUF="1.0" PDF="325320" > PDF=325300 MemberID=20 </weight>
<weight id="1069" MUR="1.0" MUF="1.0" PDF="325321" > PDF=325300 MemberID=21 </weight>
<weight id="1070" MUR="1.0" MUF="1.0" PDF="325322" > PDF=325300 MemberID=22 </weight>
<weight id="1071" MUR="1.0" MUF="1.0" PDF="325323" > PDF=325300 MemberID=23 </weight>
<weight id="1072" MUR="1.0" MUF="1.0" PDF="325324" > PDF=325300 MemberID=24 </weight>
<weight id="1073" MUR="1.0" MUF="1.0" PDF="325325" > PDF=325300 MemberID=25 </weight>
<weight id="1074" MUR="1.0" MUF="1.0" PDF="325326" > PDF=325300 MemberID=26 </weight>
<weight id="1075" MUR="1.0" MUF="1.0" PDF="325327" > PDF=325300 MemberID=27 </weight>
<weight id="1076" MUR="1.0" MUF="1.0" PDF="325328" > PDF=325300 MemberID=28 </weight>
<weight id="1077" MUR="1.0" MUF="1.0" PDF="325329" > PDF=325300 MemberID=29 </weight>
<weight id="1078" MUR="1.0" MUF="1.0" PDF="325330" > PDF=325300 MemberID=30 </weight>
<weight id="1079" MUR="1.0" MUF="1.0" PDF="325331" > PDF=325300 MemberID=31 </weight>
<weight id="1080" MUR="1.0" MUF="1.0" PDF="325332" > PDF=325300 MemberID=32 </weight>
<weight id="1081" MUR="1.0" MUF="1.0" PDF="325333" > PDF=325300 MemberID=33 </weight>
<weight id="1082" MUR="1.0" MUF="1.0" PDF="325334" > PDF=325300 MemberID=34 </weight>
<weight id="1083" MUR="1.0" MUF="1.0" PDF="325335" > PDF=325300 MemberID=35 </weight>
<weight id="1084" MUR="1.0" MUF="1.0" PDF="325336" > PDF=325300 MemberID=36 </weight>
<weight id="1085" MUR="1.0" MUF="1.0" PDF="325337" > PDF=325300 MemberID=37 </weight>
<weight id="1086" MUR="1.0" MUF="1.0" PDF="325338" > PDF=325300 MemberID=38 </weight>
<weight id="1087" MUR="1.0" MUF="1.0" PDF="325339" > PDF=325300 MemberID=39 </weight>
<weight id="1088" MUR="1.0" MUF="1.0" PDF="325340" > PDF=325300 MemberID=40 </weight>
<weight id="1089" MUR="1.0" MUF="1.0" PDF="325341" > PDF=325300 MemberID=41 </weight>
<weight id="1090" MUR="1.0" MUF="1.0" PDF="325342" > PDF=325300 MemberID=42 </weight>
<weight id="1091" MUR="1.0" MUF="1.0" PDF="325343" > PDF=325300 MemberID=43 </weight>
<weight id="1092" MUR="1.0" MUF="1.0" PDF="325344" > PDF=325300 MemberID=44 </weight>
<weight id="1093" MUR="1.0" MUF="1.0" PDF="325345" > PDF=325300 MemberID=45 </weight>
<weight id="1094" MUR="1.0" MUF="1.0" PDF="325346" > PDF=325300 MemberID=46 </weight>
<weight id="1095" MUR="1.0" MUF="1.0" PDF="325347" > PDF=325300 MemberID=47 </weight>
<weight id="1096" MUR="1.0" MUF="1.0" PDF="325348" > PDF=325300 MemberID=48 </weight>
<weight id="1097" MUR="1.0" MUF="1.0" PDF="325349" > PDF=325300 MemberID=49 </weight>
<weight id="1098" MUR="1.0" MUF="1.0" PDF="325350" > PDF=325300 MemberID=50 </weight>
<weight id="1099" MUR="1.0" MUF="1.0" PDF="325351" > PDF=325300 MemberID=51 </weight>
<weight id="1100" MUR="1.0" MUF="1.0" PDF="325352" > PDF=325300 MemberID=52 </weight>
<weight id="1101" MUR="1.0" MUF="1.0" PDF="325353" > PDF=325300 MemberID=53 </weight>
<weight id="1102" MUR="1.0" MUF="1.0" PDF="325354" > PDF=325300 MemberID=54 </weight>
<weight id="1103" MUR="1.0" MUF="1.0" PDF="325355" > PDF=325300 MemberID=55 </weight>
<weight id="1104" MUR="1.0" MUF="1.0" PDF="325356" > PDF=325300 MemberID=56 </weight>
<weight id="1105" MUR="1.0" MUF="1.0" PDF="325357" > PDF=325300 MemberID=57 </weight>
<weight id="1106" MUR="1.0" MUF="1.0" PDF="325358" > PDF=325300 MemberID=58 </weight>
<weight id="1107" MUR="1.0" MUF="1.0" PDF="325359" > PDF=325300 MemberID=59 </weight>
<weight id="1108" MUR="1.0" MUF="1.0" PDF="325360" > PDF=325300 MemberID=60 </weight>
<weight id="1109" MUR="1.0" MUF="1.0" PDF="325361" > PDF=325300 MemberID=61 </weight>
<weight id="1110" MUR="1.0" MUF="1.0" PDF="325362" > PDF=325300 MemberID=62 </weight>
<weight id="1111" MUR="1.0" MUF="1.0" PDF="325363" > PDF=325300 MemberID=63 </weight>
<weight id="1112" MUR="1.0" MUF="1.0" PDF="325364" > PDF=325300 MemberID=64 </weight>
<weight id="1113" MUR="1.0" MUF="1.0" PDF="325365" > PDF=325300 MemberID=65 </weight>
<weight id="1114" MUR="1.0" MUF="1.0" PDF="325366" > PDF=325300 MemberID=66 </weight>
<weight id="1115" MUR="1.0" MUF="1.0" PDF="325367" > PDF=325300 MemberID=67 </weight>
<weight id="1116" MUR="1.0" MUF="1.0" PDF="325368" > PDF=325300 MemberID=68 </weight>
<weight id="1117" MUR="1.0" MUF="1.0" PDF="325369" > PDF=325300 MemberID=69 </weight>
<weight id="1118" MUR="1.0" MUF="1.0" PDF="325370" > PDF=325300 MemberID=70 </weight>
<weight id="1119" MUR="1.0" MUF="1.0" PDF="325371" > PDF=325300 MemberID=71 </weight>
<weight id="1120" MUR="1.0" MUF="1.0" PDF="325372" > PDF=325300 MemberID=72 </weight>
<weight id="1121" MUR="1.0" MUF="1.0" PDF="325373" > PDF=325300 MemberID=73 </weight>
<weight id="1122" MUR="1.0" MUF="1.0" PDF="325374" > PDF=325300 MemberID=74 </weight>
<weight id="1123" MUR="1.0" MUF="1.0" PDF="325375" > PDF=325300 MemberID=75 </weight>
<weight id="1124" MUR="1.0" MUF="1.0" PDF="325376" > PDF=325300 MemberID=76 </weight>
<weight id="1125" MUR="1.0" MUF="1.0" PDF="325377" > PDF=325300 MemberID=77 </weight>
<weight id="1126" MUR="1.0" MUF="1.0" PDF="325378" > PDF=325300 MemberID=78 </weight>
<weight id="1127" MUR="1.0" MUF="1.0" PDF="325379" > PDF=325300 MemberID=79 </weight>
<weight id="1128" MUR="1.0" MUF="1.0" PDF="325380" > PDF=325300 MemberID=80 </weight>
<weight id="1129" MUR="1.0" MUF="1.0" PDF="325381" > PDF=325300 MemberID=81 </weight>
<weight id="1130" MUR="1.0" MUF="1.0" PDF="325382" > PDF=325300 MemberID=82 </weight>
<weight id="1131" MUR="1.0" MUF="1.0" PDF="325383" > PDF=325300 MemberID=83 </weight>
<weight id="1132" MUR="1.0" MUF="1.0" PDF="325384" > PDF=325300 MemberID=84 </weight>
<weight id="1133" MUR="1.0" MUF="1.0" PDF="325385" > PDF=325300 MemberID=85 </weight>
<weight id="1134" MUR="1.0" MUF="1.0" PDF="325386" > PDF=325300 MemberID=86 </weight>
<weight id="1135" MUR="1.0" MUF="1.0" PDF="325387" > PDF=325300 MemberID=87 </weight>
<weight id="1136" MUR="1.0" MUF="1.0" PDF="325388" > PDF=325300 MemberID=88 </weight>
<weight id="1137" MUR="1.0" MUF="1.0" PDF="325389" > PDF=325300 MemberID=89 </weight>
<weight id="1138" MUR="1.0" MUF="1.0" PDF="325390" > PDF=325300 MemberID=90 </weight>
<weight id="1139" MUR="1.0" MUF="1.0" PDF="325391" > PDF=325300 MemberID=91 </weight>
<weight id="1140" MUR="1.0" MUF="1.0" PDF="325392" > PDF=325300 MemberID=92 </weight>
<weight id="1141" MUR="1.0" MUF="1.0" PDF="325393" > PDF=325300 MemberID=93 </weight>
<weight id="1142" MUR="1.0" MUF="1.0" PDF="325394" > PDF=325300 MemberID=94 </weight>
<weight id="1143" MUR="1.0" MUF="1.0" PDF="325395" > PDF=325300 MemberID=95 </weight>
<weight id="1144" MUR="1.0" MUF="1.0" PDF="325396" > PDF=325300 MemberID=96 </weight>
<weight id="1145" MUR="1.0" MUF="1.0" PDF="325397" > PDF=325300 MemberID=97 </weight>
<weight id="1146" MUR="1.0" MUF="1.0" PDF="325398" > PDF=325300 MemberID=98 </weight>
<weight id="1147" MUR="1.0" MUF="1.0" PDF="325399" > PDF=325300 MemberID=99 </weight>
<weight id="1148" MUR="1.0" MUF="1.0" PDF="325400" > PDF=325300 MemberID=100 </weight>
<weight id="1149" MUR="1.0" MUF="1.0" PDF="325401" > PDF=325300 MemberID=101 </weight>
<weight id="1150" MUR="1.0" MUF="1.0" PDF="325402" > PDF=325300 MemberID=102 </weight>
</weightgroup> # PDFSET -> PDFSET
<weightgroup name="NNPDF31_nnlo_as_0118_mc" combine="replicas"> # 316200: NNPDF3.1 NNLO global fit, alphas(MZ)=0.118. mem=0 ; average on replicas (setting negative replicas to zero); mem=1-100 ; PDF replicas
<weight id="1151" MUR="1.0" MUF="1.0" PDF="316200" > PDF=316200 MemberID=0 </weight>
<weight id="1152" MUR="1.0" MUF="1.0" PDF="316201" > PDF=316200 MemberID=1 </weight>
<weight id="1153" MUR="1.0" MUF="1.0" PDF="316202" > PDF=316200 MemberID=2 </weight>
<weight id="1154" MUR="1.0" MUF="1.0" PDF="316203" > PDF=316200 MemberID=3 </weight>
<weight id="1155" MUR="1.0" MUF="1.0" PDF="316204" > PDF=316200 MemberID=4 </weight>
<weight id="1156" MUR="1.0" MUF="1.0" PDF="316205" > PDF=316200 MemberID=5 </weight>
<weight id="1157" MUR="1.0" MUF="1.0" PDF="316206" > PDF=316200 MemberID=6 </weight>
<weight id="1158" MUR="1.0" MUF="1.0" PDF="316207" > PDF=316200 MemberID=7 </weight>
<weight id="1159" MUR="1.0" MUF="1.0" PDF="316208" > PDF=316200 MemberID=8 </weight>
<weight id="1160" MUR="1.0" MUF="1.0" PDF="316209" > PDF=316200 MemberID=9 </weight>
<weight id="1161" MUR="1.0" MUF="1.0" PDF="316210" > PDF=316200 MemberID=10 </weight>
<weight id="1162" MUR="1.0" MUF="1.0" PDF="316211" > PDF=316200 MemberID=11 </weight>
<weight id="1163" MUR="1.0" MUF="1.0" PDF="316212" > PDF=316200 MemberID=12 </weight>
<weight id="1164" MUR="1.0" MUF="1.0" PDF="316213" > PDF=316200 MemberID=13 </weight>
<weight id="1165" MUR="1.0" MUF="1.0" PDF="316214" > PDF=316200 MemberID=14 </weight>
<weight id="1166" MUR="1.0" MUF="1.0" PDF="316215" > PDF=316200 MemberID=15 </weight>
<weight id="1167" MUR="1.0" MUF="1.0" PDF="316216" > PDF=316200 MemberID=16 </weight>
<weight id="1168" MUR="1.0" MUF="1.0" PDF="316217" > PDF=316200 MemberID=17 </weight>
<weight id="1169" MUR="1.0" MUF="1.0" PDF="316218" > PDF=316200 MemberID=18 </weight>
<weight id="1170" MUR="1.0" MUF="1.0" PDF="316219" > PDF=316200 MemberID=19 </weight>
<weight id="1171" MUR="1.0" MUF="1.0" PDF="316220" > PDF=316200 MemberID=20 </weight>
<weight id="1172" MUR="1.0" MUF="1.0" PDF="316221" > PDF=316200 MemberID=21 </weight>
<weight id="1173" MUR="1.0" MUF="1.0" PDF="316222" > PDF=316200 MemberID=22 </weight>
<weight id="1174" MUR="1.0" MUF="1.0" PDF="316223" > PDF=316200 MemberID=23 </weight>
<weight id="1175" MUR="1.0" MUF="1.0" PDF="316224" > PDF=316200 MemberID=24 </weight>
<weight id="1176" MUR="1.0" MUF="1.0" PDF="316225" > PDF=316200 MemberID=25 </weight>
<weight id="1177" MUR="1.0" MUF="1.0" PDF="316226" > PDF=316200 MemberID=26 </weight>
<weight id="1178" MUR="1.0" MUF="1.0" PDF="316227" > PDF=316200 MemberID=27 </weight>
<weight id="1179" MUR="1.0" MUF="1.0" PDF="316228" > PDF=316200 MemberID=28 </weight>
<weight id="1180" MUR="1.0" MUF="1.0" PDF="316229" > PDF=316200 MemberID=29 </weight>
<weight id="1181" MUR="1.0" MUF="1.0" PDF="316230" > PDF=316200 MemberID=30 </weight>
<weight id="1182" MUR="1.0" MUF="1.0" PDF="316231" > PDF=316200 MemberID=31 </weight>
<weight id="1183" MUR="1.0" MUF="1.0" PDF="316232" > PDF=316200 MemberID=32 </weight>
<weight id="1184" MUR="1.0" MUF="1.0" PDF="316233" > PDF=316200 MemberID=33 </weight>
<weight id="1185" MUR="1.0" MUF="1.0" PDF="316234" > PDF=316200 MemberID=34 </weight>
<weight id="1186" MUR="1.0" MUF="1.0" PDF="316235" > PDF=316200 MemberID=35 </weight>
<weight id="1187" MUR="1.0" MUF="1.0" PDF="316236" > PDF=316200 MemberID=36 </weight>
<weight id="1188" MUR="1.0" MUF="1.0" PDF="316237" > PDF=316200 MemberID=37 </weight>
<weight id="1189" MUR="1.0" MUF="1.0" PDF="316238" > PDF=316200 MemberID=38 </weight>
<weight id="1190" MUR="1.0" MUF="1.0" PDF="316239" > PDF=316200 MemberID=39 </weight>
<weight id="1191" MUR="1.0" MUF="1.0" PDF="316240" > PDF=316200 MemberID=40 </weight>
<weight id="1192" MUR="1.0" MUF="1.0" PDF="316241" > PDF=316200 MemberID=41 </weight>
<weight id="1193" MUR="1.0" MUF="1.0" PDF="316242" > PDF=316200 MemberID=42 </weight>
<weight id="1194" MUR="1.0" MUF="1.0" PDF="316243" > PDF=316200 MemberID=43 </weight>
<weight id="1195" MUR="1.0" MUF="1.0" PDF="316244" > PDF=316200 MemberID=44 </weight>
<weight id="1196" MUR="1.0" MUF="1.0" PDF="316245" > PDF=316200 MemberID=45 </weight>
<weight id="1197" MUR="1.0" MUF="1.0" PDF="316246" > PDF=316200 MemberID=46 </weight>
<weight id="1198" MUR="1.0" MUF="1.0" PDF="316247" > PDF=316200 MemberID=47 </weight>
<weight id="1199" MUR="1.0" MUF="1.0" PDF="316248" > PDF=316200 MemberID=48 </weight>
<weight id="1200" MUR="1.0" MUF="1.0" PDF="316249" > PDF=316200 MemberID=49 </weight>
<weight id="1201" MUR="1.0" MUF="1.0" PDF="316250" > PDF=316200 MemberID=50 </weight>
<weight id="1202" MUR="1.0" MUF="1.0" PDF="316251" > PDF=316200 MemberID=51 </weight>
<weight id="1203" MUR="1.0" MUF="1.0" PDF="316252" > PDF=316200 MemberID=52 </weight>
<weight id="1204" MUR="1.0" MUF="1.0" PDF="316253" > PDF=316200 MemberID=53 </weight>
<weight id="1205" MUR="1.0" MUF="1.0" PDF="316254" > PDF=316200 MemberID=54 </weight>
<weight id="1206" MUR="1.0" MUF="1.0" PDF="316255" > PDF=316200 MemberID=55 </weight>
<weight id="1207" MUR="1.0" MUF="1.0" PDF="316256" > PDF=316200 MemberID=56 </weight>
<weight id="1208" MUR="1.0" MUF="1.0" PDF="316257" > PDF=316200 MemberID=57 </weight>
<weight id="1209" MUR="1.0" MUF="1.0" PDF="316258" > PDF=316200 MemberID=58 </weight>
<weight id="1210" MUR="1.0" MUF="1.0" PDF="316259" > PDF=316200 MemberID=59 </weight>
<weight id="1211" MUR="1.0" MUF="1.0" PDF="316260" > PDF=316200 MemberID=60 </weight>
<weight id="1212" MUR="1.0" MUF="1.0" PDF="316261" > PDF=316200 MemberID=61 </weight>
<weight id="1213" MUR="1.0" MUF="1.0" PDF="316262" > PDF=316200 MemberID=62 </weight>
<weight id="1214" MUR="1.0" MUF="1.0" PDF="316263" > PDF=316200 MemberID=63 </weight>
<weight id="1215" MUR="1.0" MUF="1.0" PDF="316264" > PDF=316200 MemberID=64 </weight>
<weight id="1216" MUR="1.0" MUF="1.0" PDF="316265" > PDF=316200 MemberID=65 </weight>
<weight id="1217" MUR="1.0" MUF="1.0" PDF="316266" > PDF=316200 MemberID=66 </weight>
<weight id="1218" MUR="1.0" MUF="1.0" PDF="316267" > PDF=316200 MemberID=67 </weight>
<weight id="1219" MUR="1.0" MUF="1.0" PDF="316268" > PDF=316200 MemberID=68 </weight>
<weight id="1220" MUR="1.0" MUF="1.0" PDF="316269" > PDF=316200 MemberID=69 </weight>
<weight id="1221" MUR="1.0" MUF="1.0" PDF="316270" > PDF=316200 MemberID=70 </weight>
<weight id="1222" MUR="1.0" MUF="1.0" PDF="316271" > PDF=316200 MemberID=71 </weight>
<weight id="1223" MUR="1.0" MUF="1.0" PDF="316272" > PDF=316200 MemberID=72 </weight>
<weight id="1224" MUR="1.0" MUF="1.0" PDF="316273" > PDF=316200 MemberID=73 </weight>
<weight id="1225" MUR="1.0" MUF="1.0" PDF="316274" > PDF=316200 MemberID=74 </weight>
<weight id="1226" MUR="1.0" MUF="1.0" PDF="316275" > PDF=316200 MemberID=75 </weight>
<weight id="1227" MUR="1.0" MUF="1.0" PDF="316276" > PDF=316200 MemberID=76 </weight>
<weight id="1228" MUR="1.0" MUF="1.0" PDF="316277" > PDF=316200 MemberID=77 </weight>
<weight id="1229" MUR="1.0" MUF="1.0" PDF="316278" > PDF=316200 MemberID=78 </weight>
<weight id="1230" MUR="1.0" MUF="1.0" PDF="316279" > PDF=316200 MemberID=79 </weight>
<weight id="1231" MUR="1.0" MUF="1.0" PDF="316280" > PDF=316200 MemberID=80 </weight>
<weight id="1232" MUR="1.0" MUF="1.0" PDF="316281" > PDF=316200 MemberID=81 </weight>
<weight id="1233" MUR="1.0" MUF="1.0" PDF="316282" > PDF=316200 MemberID=82 </weight>
<weight id="1234" MUR="1.0" MUF="1.0" PDF="316283" > PDF=316200 MemberID=83 </weight>
<weight id="1235" MUR="1.0" MUF="1.0" PDF="316284" > PDF=316200 MemberID=84 </weight>
<weight id="1236" MUR="1.0" MUF="1.0" PDF="316285" > PDF=316200 MemberID=85 </weight>
<weight id="1237" MUR="1.0" MUF="1.0" PDF="316286" > PDF=316200 MemberID=86 </weight>
<weight id="1238" MUR="1.0" MUF="1.0" PDF="316287" > PDF=316200 MemberID=87 </weight>
<weight id="1239" MUR="1.0" MUF="1.0" PDF="316288" > PDF=316200 MemberID=88 </weight>
<weight id="1240" MUR="1.0" MUF="1.0" PDF="316289" > PDF=316200 MemberID=89 </weight>
<weight id="1241" MUR="1.0" MUF="1.0" PDF="316290" > PDF=316200 MemberID=90 </weight>
<weight id="1242" MUR="1.0" MUF="1.0" PDF="316291" > PDF=316200 MemberID=91 </weight>
<weight id="1243" MUR="1.0" MUF="1.0" PDF="316292" > PDF=316200 MemberID=92 </weight>
<weight id="1244" MUR="1.0" MUF="1.0" PDF="316293" > PDF=316200 MemberID=93 </weight>
<weight id="1245" MUR="1.0" MUF="1.0" PDF="316294" > PDF=316200 MemberID=94 </weight>
<weight id="1246" MUR="1.0" MUF="1.0" PDF="316295" > PDF=316200 MemberID=95 </weight>
<weight id="1247" MUR="1.0" MUF="1.0" PDF="316296" > PDF=316200 MemberID=96 </weight>
<weight id="1248" MUR="1.0" MUF="1.0" PDF="316297" > PDF=316200 MemberID=97 </weight>
<weight id="1249" MUR="1.0" MUF="1.0" PDF="316298" > PDF=316200 MemberID=98 </weight>
<weight id="1250" MUR="1.0" MUF="1.0" PDF="316299" > PDF=316200 MemberID=99 </weight>
<weight id="1251" MUR="1.0" MUF="1.0" PDF="316300" > PDF=316200 MemberID=100 </weight>
</weightgroup> # PDFSET -> PDFSET
<weightgroup name="NNPDF31_nnlo_hessian_pdfas" combine="symmhessian+as"> # 306000: Hessian conversion of NNPDF31_nnlo_as_0118_1000, mem=0 central value ; Alphas(MZ)=0.118; mem=1-100 ; PDF eig.; mem=101 ; central value Alphas(MZ)=0.116; mem=102 ; central value Alphas(MZ)=0.120
<weight id="1252" MUR="1.0" MUF="1.0" PDF="306000" > PDF=306000 MemberID=0 </weight>
<weight id="1253" MUR="1.0" MUF="1.0" PDF="306001" > PDF=306000 MemberID=1 </weight>
<weight id="1254" MUR="1.0" MUF="1.0" PDF="306002" > PDF=306000 MemberID=2 </weight>
<weight id="1255" MUR="1.0" MUF="1.0" PDF="306003" > PDF=306000 MemberID=3 </weight>
<weight id="1256" MUR="1.0" MUF="1.0" PDF="306004" > PDF=306000 MemberID=4 </weight>
<weight id="1257" MUR="1.0" MUF="1.0" PDF="306005" > PDF=306000 MemberID=5 </weight>
<weight id="1258" MUR="1.0" MUF="1.0" PDF="306006" > PDF=306000 MemberID=6 </weight>
<weight id="1259" MUR="1.0" MUF="1.0" PDF="306007" > PDF=306000 MemberID=7 </weight>
<weight id="1260" MUR="1.0" MUF="1.0" PDF="306008" > PDF=306000 MemberID=8 </weight>
<weight id="1261" MUR="1.0" MUF="1.0" PDF="306009" > PDF=306000 MemberID=9 </weight>
<weight id="1262" MUR="1.0" MUF="1.0" PDF="306010" > PDF=306000 MemberID=10 </weight>
<weight id="1263" MUR="1.0" MUF="1.0" PDF="306011" > PDF=306000 MemberID=11 </weight>
<weight id="1264" MUR="1.0" MUF="1.0" PDF="306012" > PDF=306000 MemberID=12 </weight>
<weight id="1265" MUR="1.0" MUF="1.0" PDF="306013" > PDF=306000 MemberID=13 </weight>
<weight id="1266" MUR="1.0" MUF="1.0" PDF="306014" > PDF=306000 MemberID=14 </weight>
<weight id="1267" MUR="1.0" MUF="1.0" PDF="306015" > PDF=306000 MemberID=15 </weight>
<weight id="1268" MUR="1.0" MUF="1.0" PDF="306016" > PDF=306000 MemberID=16 </weight>
<weight id="1269" MUR="1.0" MUF="1.0" PDF="306017" > PDF=306000 MemberID=17 </weight>
<weight id="1270" MUR="1.0" MUF="1.0" PDF="306018" > PDF=306000 MemberID=18 </weight>
<weight id="1271" MUR="1.0" MUF="1.0" PDF="306019" > PDF=306000 MemberID=19 </weight>
<weight id="1272" MUR="1.0" MUF="1.0" PDF="306020" > PDF=306000 MemberID=20 </weight>
<weight id="1273" MUR="1.0" MUF="1.0" PDF="306021" > PDF=306000 MemberID=21 </weight>
<weight id="1274" MUR="1.0" MUF="1.0" PDF="306022" > PDF=306000 MemberID=22 </weight>
<weight id="1275" MUR="1.0" MUF="1.0" PDF="306023" > PDF=306000 MemberID=23 </weight>
<weight id="1276" MUR="1.0" MUF="1.0" PDF="306024" > PDF=306000 MemberID=24 </weight>
<weight id="1277" MUR="1.0" MUF="1.0" PDF="306025" > PDF=306000 MemberID=25 </weight>
<weight id="1278" MUR="1.0" MUF="1.0" PDF="306026" > PDF=306000 MemberID=26 </weight>
<weight id="1279" MUR="1.0" MUF="1.0" PDF="306027" > PDF=306000 MemberID=27 </weight>
<weight id="1280" MUR="1.0" MUF="1.0" PDF="306028" > PDF=306000 MemberID=28 </weight>
<weight id="1281" MUR="1.0" MUF="1.0" PDF="306029" > PDF=306000 MemberID=29 </weight>
<weight id="1282" MUR="1.0" MUF="1.0" PDF="306030" > PDF=306000 MemberID=30 </weight>
<weight id="1283" MUR="1.0" MUF="1.0" PDF="306031" > PDF=306000 MemberID=31 </weight>
<weight id="1284" MUR="1.0" MUF="1.0" PDF="306032" > PDF=306000 MemberID=32 </weight>
<weight id="1285" MUR="1.0" MUF="1.0" PDF="306033" > PDF=306000 MemberID=33 </weight>
<weight id="1286" MUR="1.0" MUF="1.0" PDF="306034" > PDF=306000 MemberID=34 </weight>
<weight id="1287" MUR="1.0" MUF="1.0" PDF="306035" > PDF=306000 MemberID=35 </weight>
<weight id="1288" MUR="1.0" MUF="1.0" PDF="306036" > PDF=306000 MemberID=36 </weight>
<weight id="1289" MUR="1.0" MUF="1.0" PDF="306037" > PDF=306000 MemberID=37 </weight>
<weight id="1290" MUR="1.0" MUF="1.0" PDF="306038" > PDF=306000 MemberID=38 </weight>
<weight id="1291" MUR="1.0" MUF="1.0" PDF="306039" > PDF=306000 MemberID=39 </weight>
<weight id="1292" MUR="1.0" MUF="1.0" PDF="306040" > PDF=306000 MemberID=40 </weight>
<weight id="1293" MUR="1.0" MUF="1.0" PDF="306041" > PDF=306000 MemberID=41 </weight>
<weight id="1294" MUR="1.0" MUF="1.0" PDF="306042" > PDF=306000 MemberID=42 </weight>
<weight id="1295" MUR="1.0" MUF="1.0" PDF="306043" > PDF=306000 MemberID=43 </weight>
<weight id="1296" MUR="1.0" MUF="1.0" PDF="306044" > PDF=306000 MemberID=44 </weight>
<weight id="1297" MUR="1.0" MUF="1.0" PDF="306045" > PDF=306000 MemberID=45 </weight>
<weight id="1298" MUR="1.0" MUF="1.0" PDF="306046" > PDF=306000 MemberID=46 </weight>
<weight id="1299" MUR="1.0" MUF="1.0" PDF="306047" > PDF=306000 MemberID=47 </weight>
<weight id="1300" MUR="1.0" MUF="1.0" PDF="306048" > PDF=306000 MemberID=48 </weight>
<weight id="1301" MUR="1.0" MUF="1.0" PDF="306049" > PDF=306000 MemberID=49 </weight>
<weight id="1302" MUR="1.0" MUF="1.0" PDF="306050" > PDF=306000 MemberID=50 </weight>
<weight id="1303" MUR="1.0" MUF="1.0" PDF="306051" > PDF=306000 MemberID=51 </weight>
<weight id="1304" MUR="1.0" MUF="1.0" PDF="306052" > PDF=306000 MemberID=52 </weight>
<weight id="1305" MUR="1.0" MUF="1.0" PDF="306053" > PDF=306000 MemberID=53 </weight>
<weight id="1306" MUR="1.0" MUF="1.0" PDF="306054" > PDF=306000 MemberID=54 </weight>
<weight id="1307" MUR="1.0" MUF="1.0" PDF="306055" > PDF=306000 MemberID=55 </weight>
<weight id="1308" MUR="1.0" MUF="1.0" PDF="306056" > PDF=306000 MemberID=56 </weight>
<weight id="1309" MUR="1.0" MUF="1.0" PDF="306057" > PDF=306000 MemberID=57 </weight>
<weight id="1310" MUR="1.0" MUF="1.0" PDF="306058" > PDF=306000 MemberID=58 </weight>
<weight id="1311" MUR="1.0" MUF="1.0" PDF="306059" > PDF=306000 MemberID=59 </weight>
<weight id="1312" MUR="1.0" MUF="1.0" PDF="306060" > PDF=306000 MemberID=60 </weight>
<weight id="1313" MUR="1.0" MUF="1.0" PDF="306061" > PDF=306000 MemberID=61 </weight>
<weight id="1314" MUR="1.0" MUF="1.0" PDF="306062" > PDF=306000 MemberID=62 </weight>
<weight id="1315" MUR="1.0" MUF="1.0" PDF="306063" > PDF=306000 MemberID=63 </weight>
<weight id="1316" MUR="1.0" MUF="1.0" PDF="306064" > PDF=306000 MemberID=64 </weight>
<weight id="1317" MUR="1.0" MUF="1.0" PDF="306065" > PDF=306000 MemberID=65 </weight>
<weight id="1318" MUR="1.0" MUF="1.0" PDF="306066" > PDF=306000 MemberID=66 </weight>
<weight id="1319" MUR="1.0" MUF="1.0" PDF="306067" > PDF=306000 MemberID=67 </weight>
<weight id="1320" MUR="1.0" MUF="1.0" PDF="306068" > PDF=306000 MemberID=68 </weight>
<weight id="1321" MUR="1.0" MUF="1.0" PDF="306069" > PDF=306000 MemberID=69 </weight>
<weight id="1322" MUR="1.0" MUF="1.0" PDF="306070" > PDF=306000 MemberID=70 </weight>
<weight id="1323" MUR="1.0" MUF="1.0" PDF="306071" > PDF=306000 MemberID=71 </weight>
<weight id="1324" MUR="1.0" MUF="1.0" PDF="306072" > PDF=306000 MemberID=72 </weight>
<weight id="1325" MUR="1.0" MUF="1.0" PDF="306073" > PDF=306000 MemberID=73 </weight>
<weight id="1326" MUR="1.0" MUF="1.0" PDF="306074" > PDF=306000 MemberID=74 </weight>
<weight id="1327" MUR="1.0" MUF="1.0" PDF="306075" > PDF=306000 MemberID=75 </weight>
<weight id="1328" MUR="1.0" MUF="1.0" PDF="306076" > PDF=306000 MemberID=76 </weight>
<weight id="1329" MUR="1.0" MUF="1.0" PDF="306077" > PDF=306000 MemberID=77 </weight>
<weight id="1330" MUR="1.0" MUF="1.0" PDF="306078" > PDF=306000 MemberID=78 </weight>
<weight id="1331" MUR="1.0" MUF="1.0" PDF="306079" > PDF=306000 MemberID=79 </weight>
<weight id="1332" MUR="1.0" MUF="1.0" PDF="306080" > PDF=306000 MemberID=80 </weight>
<weight id="1333" MUR="1.0" MUF="1.0" PDF="306081" > PDF=306000 MemberID=81 </weight>
<weight id="1334" MUR="1.0" MUF="1.0" PDF="306082" > PDF=306000 MemberID=82 </weight>
<weight id="1335" MUR="1.0" MUF="1.0" PDF="306083" > PDF=306000 MemberID=83 </weight>
<weight id="1336" MUR="1.0" MUF="1.0" PDF="306084" > PDF=306000 MemberID=84 </weight>
<weight id="1337" MUR="1.0" MUF="1.0" PDF="306085" > PDF=306000 MemberID=85 </weight>
<weight id="1338" MUR="1.0" MUF="1.0" PDF="306086" > PDF=306000 MemberID=86 </weight>
<weight id="1339" MUR="1.0" MUF="1.0" PDF="306087" > PDF=306000 MemberID=87 </weight>
<weight id="1340" MUR="1.0" MUF="1.0" PDF="306088" > PDF=306000 MemberID=88 </weight>
<weight id="1341" MUR="1.0" MUF="1.0" PDF="306089" > PDF=306000 MemberID=89 </weight>
<weight id="1342" MUR="1.0" MUF="1.0" PDF="306090" > PDF=306000 MemberID=90 </weight>
<weight id="1343" MUR="1.0" MUF="1.0" PDF="306091" > PDF=306000 MemberID=91 </weight>
<weight id="1344" MUR="1.0" MUF="1.0" PDF="306092" > PDF=306000 MemberID=92 </weight>
<weight id="1345" MUR="1.0" MUF="1.0" PDF="306093" > PDF=306000 MemberID=93 </weight>
<weight id="1346" MUR="1.0" MUF="1.0" PDF="306094" > PDF=306000 MemberID=94 </weight>
<weight id="1347" MUR="1.0" MUF="1.0" PDF="306095" > PDF=306000 MemberID=95 </weight>
<weight id="1348" MUR="1.0" MUF="1.0" PDF="306096" > PDF=306000 MemberID=96 </weight>
<weight id="1349" MUR="1.0" MUF="1.0" PDF="306097" > PDF=306000 MemberID=97 </weight>
<weight id="1350" MUR="1.0" MUF="1.0" PDF="306098" > PDF=306000 MemberID=98 </weight>
<weight id="1351" MUR="1.0" MUF="1.0" PDF="306099" > PDF=306000 MemberID=99 </weight>
<weight id="1352" MUR="1.0" MUF="1.0" PDF="306100" > PDF=306000 MemberID=100 </weight>
<weight id="1353" MUR="1.0" MUF="1.0" PDF="306101" > PDF=306000 MemberID=101 </weight>
<weight id="1354" MUR="1.0" MUF="1.0" PDF="306102" > PDF=306000 MemberID=102 </weight>
</weightgroup> # PDFSET -> PDF
<weight id="1355" MUR="1.0" MUF="1.0" PDF="322500" > PDF=322500 MemberID=0 </weight>
<weight id="1356" MUR="1.0" MUF="1.0" PDF="322700" > PDF=322700 MemberID=0 </weight>
<weight id="1357" MUR="1.0" MUF="1.0" PDF="322900" > PDF=322900 MemberID=0 </weight>
<weight id="1358" MUR="1.0" MUF="1.0" PDF="323100" > PDF=323100 MemberID=0 </weight>
<weight id="1359" MUR="1.0" MUF="1.0" PDF="323300" > PDF=323300 MemberID=0 </weight>
<weight id="1360" MUR="1.0" MUF="1.0" PDF="323500" > PDF=323500 MemberID=0 </weight>
<weight id="1361" MUR="1.0" MUF="1.0" PDF="323700" > PDF=323700 MemberID=0 </weight>
<weight id="1362" MUR="1.0" MUF="1.0" PDF="323900" > PDF=323900 MemberID=0 </weight>
<weightgroup name="NNPDF31_nlo_hessian_pdfas" combine="symmhessian+as"> # 305800: Hessian conversion of NNPDF31_nlo_as_0118_1000, mem=0 ; central value Alphas(MZ)=0.118; mem=1-100 ; PDF eig.; mem=101 ; central value Alphas(MZ)=0.116; mem=102 ; central value Alphas(MZ)=0.120
<weight id="1363" MUR="1.0" MUF="1.0" PDF="305800" > PDF=305800 MemberID=0 </weight>
<weight id="1364" MUR="1.0" MUF="1.0" PDF="305801" > PDF=305800 MemberID=1 </weight>
<weight id="1365" MUR="1.0" MUF="1.0" PDF="305802" > PDF=305800 MemberID=2 </weight>
<weight id="1366" MUR="1.0" MUF="1.0" PDF="305803" > PDF=305800 MemberID=3 </weight>
<weight id="1367" MUR="1.0" MUF="1.0" PDF="305804" > PDF=305800 MemberID=4 </weight>
<weight id="1368" MUR="1.0" MUF="1.0" PDF="305805" > PDF=305800 MemberID=5 </weight>
<weight id="1369" MUR="1.0" MUF="1.0" PDF="305806" > PDF=305800 MemberID=6 </weight>
<weight id="1370" MUR="1.0" MUF="1.0" PDF="305807" > PDF=305800 MemberID=7 </weight>
<weight id="1371" MUR="1.0" MUF="1.0" PDF="305808" > PDF=305800 MemberID=8 </weight>
<weight id="1372" MUR="1.0" MUF="1.0" PDF="305809" > PDF=305800 MemberID=9 </weight>
<weight id="1373" MUR="1.0" MUF="1.0" PDF="305810" > PDF=305800 MemberID=10 </weight>
<weight id="1374" MUR="1.0" MUF="1.0" PDF="305811" > PDF=305800 MemberID=11 </weight>
<weight id="1375" MUR="1.0" MUF="1.0" PDF="305812" > PDF=305800 MemberID=12 </weight>
<weight id="1376" MUR="1.0" MUF="1.0" PDF="305813" > PDF=305800 MemberID=13 </weight>
<weight id="1377" MUR="1.0" MUF="1.0" PDF="305814" > PDF=305800 MemberID=14 </weight>
<weight id="1378" MUR="1.0" MUF="1.0" PDF="305815" > PDF=305800 MemberID=15 </weight>
<weight id="1379" MUR="1.0" MUF="1.0" PDF="305816" > PDF=305800 MemberID=16 </weight>
<weight id="1380" MUR="1.0" MUF="1.0" PDF="305817" > PDF=305800 MemberID=17 </weight>
<weight id="1381" MUR="1.0" MUF="1.0" PDF="305818" > PDF=305800 MemberID=18 </weight>
<weight id="1382" MUR="1.0" MUF="1.0" PDF="305819" > PDF=305800 MemberID=19 </weight>
<weight id="1383" MUR="1.0" MUF="1.0" PDF="305820" > PDF=305800 MemberID=20 </weight>
<weight id="1384" MUR="1.0" MUF="1.0" PDF="305821" > PDF=305800 MemberID=21 </weight>
<weight id="1385" MUR="1.0" MUF="1.0" PDF="305822" > PDF=305800 MemberID=22 </weight>
<weight id="1386" MUR="1.0" MUF="1.0" PDF="305823" > PDF=305800 MemberID=23 </weight>
<weight id="1387" MUR="1.0" MUF="1.0" PDF="305824" > PDF=305800 MemberID=24 </weight>
<weight id="1388" MUR="1.0" MUF="1.0" PDF="305825" > PDF=305800 MemberID=25 </weight>
<weight id="1389" MUR="1.0" MUF="1.0" PDF="305826" > PDF=305800 MemberID=26 </weight>
<weight id="1390" MUR="1.0" MUF="1.0" PDF="305827" > PDF=305800 MemberID=27 </weight>
<weight id="1391" MUR="1.0" MUF="1.0" PDF="305828" > PDF=305800 MemberID=28 </weight>
<weight id="1392" MUR="1.0" MUF="1.0" PDF="305829" > PDF=305800 MemberID=29 </weight>
<weight id="1393" MUR="1.0" MUF="1.0" PDF="305830" > PDF=305800 MemberID=30 </weight>
<weight id="1394" MUR="1.0" MUF="1.0" PDF="305831" > PDF=305800 MemberID=31 </weight>
<weight id="1395" MUR="1.0" MUF="1.0" PDF="305832" > PDF=305800 MemberID=32 </weight>
<weight id="1396" MUR="1.0" MUF="1.0" PDF="305833" > PDF=305800 MemberID=33 </weight>
<weight id="1397" MUR="1.0" MUF="1.0" PDF="305834" > PDF=305800 MemberID=34 </weight>
<weight id="1398" MUR="1.0" MUF="1.0" PDF="305835" > PDF=305800 MemberID=35 </weight>
<weight id="1399" MUR="1.0" MUF="1.0" PDF="305836" > PDF=305800 MemberID=36 </weight>
<weight id="1400" MUR="1.0" MUF="1.0" PDF="305837" > PDF=305800 MemberID=37 </weight>
<weight id="1401" MUR="1.0" MUF="1.0" PDF="305838" > PDF=305800 MemberID=38 </weight>
<weight id="1402" MUR="1.0" MUF="1.0" PDF="305839" > PDF=305800 MemberID=39 </weight>
<weight id="1403" MUR="1.0" MUF="1.0" PDF="305840" > PDF=305800 MemberID=40 </weight>
<weight id="1404" MUR="1.0" MUF="1.0" PDF="305841" > PDF=305800 MemberID=41 </weight>
<weight id="1405" MUR="1.0" MUF="1.0" PDF="305842" > PDF=305800 MemberID=42 </weight>
<weight id="1406" MUR="1.0" MUF="1.0" PDF="305843" > PDF=305800 MemberID=43 </weight>
<weight id="1407" MUR="1.0" MUF="1.0" PDF="305844" > PDF=305800 MemberID=44 </weight>
<weight id="1408" MUR="1.0" MUF="1.0" PDF="305845" > PDF=305800 MemberID=45 </weight>
<weight id="1409" MUR="1.0" MUF="1.0" PDF="305846" > PDF=305800 MemberID=46 </weight>
<weight id="1410" MUR="1.0" MUF="1.0" PDF="305847" > PDF=305800 MemberID=47 </weight>
<weight id="1411" MUR="1.0" MUF="1.0" PDF="305848" > PDF=305800 MemberID=48 </weight>
<weight id="1412" MUR="1.0" MUF="1.0" PDF="305849" > PDF=305800 MemberID=49 </weight>
<weight id="1413" MUR="1.0" MUF="1.0" PDF="305850" > PDF=305800 MemberID=50 </weight>
<weight id="1414" MUR="1.0" MUF="1.0" PDF="305851" > PDF=305800 MemberID=51 </weight>
<weight id="1415" MUR="1.0" MUF="1.0" PDF="305852" > PDF=305800 MemberID=52 </weight>
<weight id="1416" MUR="1.0" MUF="1.0" PDF="305853" > PDF=305800 MemberID=53 </weight>
<weight id="1417" MUR="1.0" MUF="1.0" PDF="305854" > PDF=305800 MemberID=54 </weight>
<weight id="1418" MUR="1.0" MUF="1.0" PDF="305855" > PDF=305800 MemberID=55 </weight>
<weight id="1419" MUR="1.0" MUF="1.0" PDF="305856" > PDF=305800 MemberID=56 </weight>
<weight id="1420" MUR="1.0" MUF="1.0" PDF="305857" > PDF=305800 MemberID=57 </weight>
<weight id="1421" MUR="1.0" MUF="1.0" PDF="305858" > PDF=305800 MemberID=58 </weight>
<weight id="1422" MUR="1.0" MUF="1.0" PDF="305859" > PDF=305800 MemberID=59 </weight>
<weight id="1423" MUR="1.0" MUF="1.0" PDF="305860" > PDF=305800 MemberID=60 </weight>
<weight id="1424" MUR="1.0" MUF="1.0" PDF="305861" > PDF=305800 MemberID=61 </weight>
<weight id="1425" MUR="1.0" MUF="1.0" PDF="305862" > PDF=305800 MemberID=62 </weight>
<weight id="1426" MUR="1.0" MUF="1.0" PDF="305863" > PDF=305800 MemberID=63 </weight>
<weight id="1427" MUR="1.0" MUF="1.0" PDF="305864" > PDF=305800 MemberID=64 </weight>
<weight id="1428" MUR="1.0" MUF="1.0" PDF="305865" > PDF=305800 MemberID=65 </weight>
<weight id="1429" MUR="1.0" MUF="1.0" PDF="305866" > PDF=305800 MemberID=66 </weight>
<weight id="1430" MUR="1.0" MUF="1.0" PDF="305867" > PDF=305800 MemberID=67 </weight>
<weight id="1431" MUR="1.0" MUF="1.0" PDF="305868" > PDF=305800 MemberID=68 </weight>
<weight id="1432" MUR="1.0" MUF="1.0" PDF="305869" > PDF=305800 MemberID=69 </weight>
<weight id="1433" MUR="1.0" MUF="1.0" PDF="305870" > PDF=305800 MemberID=70 </weight>
<weight id="1434" MUR="1.0" MUF="1.0" PDF="305871" > PDF=305800 MemberID=71 </weight>
<weight id="1435" MUR="1.0" MUF="1.0" PDF="305872" > PDF=305800 MemberID=72 </weight>
<weight id="1436" MUR="1.0" MUF="1.0" PDF="305873" > PDF=305800 MemberID=73 </weight>
<weight id="1437" MUR="1.0" MUF="1.0" PDF="305874" > PDF=305800 MemberID=74 </weight>
<weight id="1438" MUR="1.0" MUF="1.0" PDF="305875" > PDF=305800 MemberID=75 </weight>
<weight id="1439" MUR="1.0" MUF="1.0" PDF="305876" > PDF=305800 MemberID=76 </weight>
<weight id="1440" MUR="1.0" MUF="1.0" PDF="305877" > PDF=305800 MemberID=77 </weight>
<weight id="1441" MUR="1.0" MUF="1.0" PDF="305878" > PDF=305800 MemberID=78 </weight>
<weight id="1442" MUR="1.0" MUF="1.0" PDF="305879" > PDF=305800 MemberID=79 </weight>
<weight id="1443" MUR="1.0" MUF="1.0" PDF="305880" > PDF=305800 MemberID=80 </weight>
<weight id="1444" MUR="1.0" MUF="1.0" PDF="305881" > PDF=305800 MemberID=81 </weight>
<weight id="1445" MUR="1.0" MUF="1.0" PDF="305882" > PDF=305800 MemberID=82 </weight>
<weight id="1446" MUR="1.0" MUF="1.0" PDF="305883" > PDF=305800 MemberID=83 </weight>
<weight id="1447" MUR="1.0" MUF="1.0" PDF="305884" > PDF=305800 MemberID=84 </weight>
<weight id="1448" MUR="1.0" MUF="1.0" PDF="305885" > PDF=305800 MemberID=85 </weight>
<weight id="1449" MUR="1.0" MUF="1.0" PDF="305886" > PDF=305800 MemberID=86 </weight>
<weight id="1450" MUR="1.0" MUF="1.0" PDF="305887" > PDF=305800 MemberID=87 </weight>
<weight id="1451" MUR="1.0" MUF="1.0" PDF="305888" > PDF=305800 MemberID=88 </weight>
<weight id="1452" MUR="1.0" MUF="1.0" PDF="305889" > PDF=305800 MemberID=89 </weight>
<weight id="1453" MUR="1.0" MUF="1.0" PDF="305890" > PDF=305800 MemberID=90 </weight>
<weight id="1454" MUR="1.0" MUF="1.0" PDF="305891" > PDF=305800 MemberID=91 </weight>
<weight id="1455" MUR="1.0" MUF="1.0" PDF="305892" > PDF=305800 MemberID=92 </weight>
<weight id="1456" MUR="1.0" MUF="1.0" PDF="305893" > PDF=305800 MemberID=93 </weight>
<weight id="1457" MUR="1.0" MUF="1.0" PDF="305894" > PDF=305800 MemberID=94 </weight>
<weight id="1458" MUR="1.0" MUF="1.0" PDF="305895" > PDF=305800 MemberID=95 </weight>
<weight id="1459" MUR="1.0" MUF="1.0" PDF="305896" > PDF=305800 MemberID=96 </weight>
<weight id="1460" MUR="1.0" MUF="1.0" PDF="305897" > PDF=305800 MemberID=97 </weight>
<weight id="1461" MUR="1.0" MUF="1.0" PDF="305898" > PDF=305800 MemberID=98 </weight>
<weight id="1462" MUR="1.0" MUF="1.0" PDF="305899" > PDF=305800 MemberID=99 </weight>
<weight id="1463" MUR="1.0" MUF="1.0" PDF="305900" > PDF=305800 MemberID=100 </weight>
<weight id="1464" MUR="1.0" MUF="1.0" PDF="305901" > PDF=305800 MemberID=101 </weight>
<weight id="1465" MUR="1.0" MUF="1.0" PDF="305902" > PDF=305800 MemberID=102 </weight>
</weightgroup> # PDFSET -> PDFSET
<weightgroup name="CT14nnlo" combine="hessian"> # 13000: CT14nnlo, 3-loop PDF evolution with HOPPET and HOPPET alphas_s running solution. This set has 57 member PDFs. mem=0 --.gt. central value; mem=1-56 --.gt. eigenvector sets 90%
<weight id="1466" MUR="1.0" MUF="1.0" PDF="13000" > PDF=13000 MemberID=0 </weight>
<weight id="1467" MUR="1.0" MUF="1.0" PDF="13001" > PDF=13000 MemberID=1 </weight>
<weight id="1468" MUR="1.0" MUF="1.0" PDF="13002" > PDF=13000 MemberID=2 </weight>
<weight id="1469" MUR="1.0" MUF="1.0" PDF="13003" > PDF=13000 MemberID=3 </weight>
<weight id="1470" MUR="1.0" MUF="1.0" PDF="13004" > PDF=13000 MemberID=4 </weight>
<weight id="1471" MUR="1.0" MUF="1.0" PDF="13005" > PDF=13000 MemberID=5 </weight>
<weight id="1472" MUR="1.0" MUF="1.0" PDF="13006" > PDF=13000 MemberID=6 </weight>
<weight id="1473" MUR="1.0" MUF="1.0" PDF="13007" > PDF=13000 MemberID=7 </weight>
<weight id="1474" MUR="1.0" MUF="1.0" PDF="13008" > PDF=13000 MemberID=8 </weight>
<weight id="1475" MUR="1.0" MUF="1.0" PDF="13009" > PDF=13000 MemberID=9 </weight>
<weight id="1476" MUR="1.0" MUF="1.0" PDF="13010" > PDF=13000 MemberID=10 </weight>
<weight id="1477" MUR="1.0" MUF="1.0" PDF="13011" > PDF=13000 MemberID=11 </weight>
<weight id="1478" MUR="1.0" MUF="1.0" PDF="13012" > PDF=13000 MemberID=12 </weight>
<weight id="1479" MUR="1.0" MUF="1.0" PDF="13013" > PDF=13000 MemberID=13 </weight>
<weight id="1480" MUR="1.0" MUF="1.0" PDF="13014" > PDF=13000 MemberID=14 </weight>
<weight id="1481" MUR="1.0" MUF="1.0" PDF="13015" > PDF=13000 MemberID=15 </weight>
<weight id="1482" MUR="1.0" MUF="1.0" PDF="13016" > PDF=13000 MemberID=16 </weight>
<weight id="1483" MUR="1.0" MUF="1.0" PDF="13017" > PDF=13000 MemberID=17 </weight>
<weight id="1484" MUR="1.0" MUF="1.0" PDF="13018" > PDF=13000 MemberID=18 </weight>
<weight id="1485" MUR="1.0" MUF="1.0" PDF="13019" > PDF=13000 MemberID=19 </weight>
<weight id="1486" MUR="1.0" MUF="1.0" PDF="13020" > PDF=13000 MemberID=20 </weight>
<weight id="1487" MUR="1.0" MUF="1.0" PDF="13021" > PDF=13000 MemberID=21 </weight>
<weight id="1488" MUR="1.0" MUF="1.0" PDF="13022" > PDF=13000 MemberID=22 </weight>
<weight id="1489" MUR="1.0" MUF="1.0" PDF="13023" > PDF=13000 MemberID=23 </weight>
<weight id="1490" MUR="1.0" MUF="1.0" PDF="13024" > PDF=13000 MemberID=24 </weight>
<weight id="1491" MUR="1.0" MUF="1.0" PDF="13025" > PDF=13000 MemberID=25 </weight>
<weight id="1492" MUR="1.0" MUF="1.0" PDF="13026" > PDF=13000 MemberID=26 </weight>
<weight id="1493" MUR="1.0" MUF="1.0" PDF="13027" > PDF=13000 MemberID=27 </weight>
<weight id="1494" MUR="1.0" MUF="1.0" PDF="13028" > PDF=13000 MemberID=28 </weight>
<weight id="1495" MUR="1.0" MUF="1.0" PDF="13029" > PDF=13000 MemberID=29 </weight>
<weight id="1496" MUR="1.0" MUF="1.0" PDF="13030" > PDF=13000 MemberID=30 </weight>
<weight id="1497" MUR="1.0" MUF="1.0" PDF="13031" > PDF=13000 MemberID=31 </weight>
<weight id="1498" MUR="1.0" MUF="1.0" PDF="13032" > PDF=13000 MemberID=32 </weight>
<weight id="1499" MUR="1.0" MUF="1.0" PDF="13033" > PDF=13000 MemberID=33 </weight>
<weight id="1500" MUR="1.0" MUF="1.0" PDF="13034" > PDF=13000 MemberID=34 </weight>
<weight id="1501" MUR="1.0" MUF="1.0" PDF="13035" > PDF=13000 MemberID=35 </weight>
<weight id="1502" MUR="1.0" MUF="1.0" PDF="13036" > PDF=13000 MemberID=36 </weight>
<weight id="1503" MUR="1.0" MUF="1.0" PDF="13037" > PDF=13000 MemberID=37 </weight>
<weight id="1504" MUR="1.0" MUF="1.0" PDF="13038" > PDF=13000 MemberID=38 </weight>
<weight id="1505" MUR="1.0" MUF="1.0" PDF="13039" > PDF=13000 MemberID=39 </weight>
<weight id="1506" MUR="1.0" MUF="1.0" PDF="13040" > PDF=13000 MemberID=40 </weight>
<weight id="1507" MUR="1.0" MUF="1.0" PDF="13041" > PDF=13000 MemberID=41 </weight>
<weight id="1508" MUR="1.0" MUF="1.0" PDF="13042" > PDF=13000 MemberID=42 </weight>
<weight id="1509" MUR="1.0" MUF="1.0" PDF="13043" > PDF=13000 MemberID=43 </weight>
<weight id="1510" MUR="1.0" MUF="1.0" PDF="13044" > PDF=13000 MemberID=44 </weight>
<weight id="1511" MUR="1.0" MUF="1.0" PDF="13045" > PDF=13000 MemberID=45 </weight>
<weight id="1512" MUR="1.0" MUF="1.0" PDF="13046" > PDF=13000 MemberID=46 </weight>
<weight id="1513" MUR="1.0" MUF="1.0" PDF="13047" > PDF=13000 MemberID=47 </weight>
<weight id="1514" MUR="1.0" MUF="1.0" PDF="13048" > PDF=13000 MemberID=48 </weight>
<weight id="1515" MUR="1.0" MUF="1.0" PDF="13049" > PDF=13000 MemberID=49 </weight>
<weight id="1516" MUR="1.0" MUF="1.0" PDF="13050" > PDF=13000 MemberID=50 </weight>
<weight id="1517" MUR="1.0" MUF="1.0" PDF="13051" > PDF=13000 MemberID=51 </weight>
<weight id="1518" MUR="1.0" MUF="1.0" PDF="13052" > PDF=13000 MemberID=52 </weight>
<weight id="1519" MUR="1.0" MUF="1.0" PDF="13053" > PDF=13000 MemberID=53 </weight>
<weight id="1520" MUR="1.0" MUF="1.0" PDF="13054" > PDF=13000 MemberID=54 </weight>
<weight id="1521" MUR="1.0" MUF="1.0" PDF="13055" > PDF=13000 MemberID=55 </weight>
<weight id="1522" MUR="1.0" MUF="1.0" PDF="13056" > PDF=13000 MemberID=56 </weight>
</weightgroup> # PDFSET -> PDF
<weight id="1523" MUR="1.0" MUF="1.0" PDF="13065" > PDF=13065 MemberID=0 </weight>
<weight id="1524" MUR="1.0" MUF="1.0" PDF="13069" > PDF=13069 MemberID=0 </weight>
<weightgroup name="CT14nlo" combine="hessian"> # 13100: CT14nlo, 2-loop PDF evolution with HOPPET and HOPPET alphas_s running solution. This set has 57 member PDFs. mem=0 --.gt. central value; mem=1-56 --.gt. eigenvector sets 90%
<weight id="1525" MUR="1.0" MUF="1.0" PDF="13100" > PDF=13100 MemberID=0 </weight>
<weight id="1526" MUR="1.0" MUF="1.0" PDF="13101" > PDF=13100 MemberID=1 </weight>
<weight id="1527" MUR="1.0" MUF="1.0" PDF="13102" > PDF=13100 MemberID=2 </weight>
<weight id="1528" MUR="1.0" MUF="1.0" PDF="13103" > PDF=13100 MemberID=3 </weight>
<weight id="1529" MUR="1.0" MUF="1.0" PDF="13104" > PDF=13100 MemberID=4 </weight>
<weight id="1530" MUR="1.0" MUF="1.0" PDF="13105" > PDF=13100 MemberID=5 </weight>
<weight id="1531" MUR="1.0" MUF="1.0" PDF="13106" > PDF=13100 MemberID=6 </weight>
<weight id="1532" MUR="1.0" MUF="1.0" PDF="13107" > PDF=13100 MemberID=7 </weight>
<weight id="1533" MUR="1.0" MUF="1.0" PDF="13108" > PDF=13100 MemberID=8 </weight>
<weight id="1534" MUR="1.0" MUF="1.0" PDF="13109" > PDF=13100 MemberID=9 </weight>
<weight id="1535" MUR="1.0" MUF="1.0" PDF="13110" > PDF=13100 MemberID=10 </weight>
<weight id="1536" MUR="1.0" MUF="1.0" PDF="13111" > PDF=13100 MemberID=11 </weight>
<weight id="1537" MUR="1.0" MUF="1.0" PDF="13112" > PDF=13100 MemberID=12 </weight>
<weight id="1538" MUR="1.0" MUF="1.0" PDF="13113" > PDF=13100 MemberID=13 </weight>
<weight id="1539" MUR="1.0" MUF="1.0" PDF="13114" > PDF=13100 MemberID=14 </weight>
<weight id="1540" MUR="1.0" MUF="1.0" PDF="13115" > PDF=13100 MemberID=15 </weight>
<weight id="1541" MUR="1.0" MUF="1.0" PDF="13116" > PDF=13100 MemberID=16 </weight>
<weight id="1542" MUR="1.0" MUF="1.0" PDF="13117" > PDF=13100 MemberID=17 </weight>
<weight id="1543" MUR="1.0" MUF="1.0" PDF="13118" > PDF=13100 MemberID=18 </weight>
<weight id="1544" MUR="1.0" MUF="1.0" PDF="13119" > PDF=13100 MemberID=19 </weight>
<weight id="1545" MUR="1.0" MUF="1.0" PDF="13120" > PDF=13100 MemberID=20 </weight>
<weight id="1546" MUR="1.0" MUF="1.0" PDF="13121" > PDF=13100 MemberID=21 </weight>
<weight id="1547" MUR="1.0" MUF="1.0" PDF="13122" > PDF=13100 MemberID=22 </weight>
<weight id="1548" MUR="1.0" MUF="1.0" PDF="13123" > PDF=13100 MemberID=23 </weight>
<weight id="1549" MUR="1.0" MUF="1.0" PDF="13124" > PDF=13100 MemberID=24 </weight>
<weight id="1550" MUR="1.0" MUF="1.0" PDF="13125" > PDF=13100 MemberID=25 </weight>
<weight id="1551" MUR="1.0" MUF="1.0" PDF="13126" > PDF=13100 MemberID=26 </weight>
<weight id="1552" MUR="1.0" MUF="1.0" PDF="13127" > PDF=13100 MemberID=27 </weight>
<weight id="1553" MUR="1.0" MUF="1.0" PDF="13128" > PDF=13100 MemberID=28 </weight>
<weight id="1554" MUR="1.0" MUF="1.0" PDF="13129" > PDF=13100 MemberID=29 </weight>
<weight id="1555" MUR="1.0" MUF="1.0" PDF="13130" > PDF=13100 MemberID=30 </weight>
<weight id="1556" MUR="1.0" MUF="1.0" PDF="13131" > PDF=13100 MemberID=31 </weight>
<weight id="1557" MUR="1.0" MUF="1.0" PDF="13132" > PDF=13100 MemberID=32 </weight>
<weight id="1558" MUR="1.0" MUF="1.0" PDF="13133" > PDF=13100 MemberID=33 </weight>
<weight id="1559" MUR="1.0" MUF="1.0" PDF="13134" > PDF=13100 MemberID=34 </weight>
<weight id="1560" MUR="1.0" MUF="1.0" PDF="13135" > PDF=13100 MemberID=35 </weight>
<weight id="1561" MUR="1.0" MUF="1.0" PDF="13136" > PDF=13100 MemberID=36 </weight>
<weight id="1562" MUR="1.0" MUF="1.0" PDF="13137" > PDF=13100 MemberID=37 </weight>
<weight id="1563" MUR="1.0" MUF="1.0" PDF="13138" > PDF=13100 MemberID=38 </weight>
<weight id="1564" MUR="1.0" MUF="1.0" PDF="13139" > PDF=13100 MemberID=39 </weight>
<weight id="1565" MUR="1.0" MUF="1.0" PDF="13140" > PDF=13100 MemberID=40 </weight>
<weight id="1566" MUR="1.0" MUF="1.0" PDF="13141" > PDF=13100 MemberID=41 </weight>
<weight id="1567" MUR="1.0" MUF="1.0" PDF="13142" > PDF=13100 MemberID=42 </weight>
<weight id="1568" MUR="1.0" MUF="1.0" PDF="13143" > PDF=13100 MemberID=43 </weight>
<weight id="1569" MUR="1.0" MUF="1.0" PDF="13144" > PDF=13100 MemberID=44 </weight>
<weight id="1570" MUR="1.0" MUF="1.0" PDF="13145" > PDF=13100 MemberID=45 </weight>
<weight id="1571" MUR="1.0" MUF="1.0" PDF="13146" > PDF=13100 MemberID=46 </weight>
<weight id="1572" MUR="1.0" MUF="1.0" PDF="13147" > PDF=13100 MemberID=47 </weight>
<weight id="1573" MUR="1.0" MUF="1.0" PDF="13148" > PDF=13100 MemberID=48 </weight>
<weight id="1574" MUR="1.0" MUF="1.0" PDF="13149" > PDF=13100 MemberID=49 </weight>
<weight id="1575" MUR="1.0" MUF="1.0" PDF="13150" > PDF=13100 MemberID=50 </weight>
<weight id="1576" MUR="1.0" MUF="1.0" PDF="13151" > PDF=13100 MemberID=51 </weight>
<weight id="1577" MUR="1.0" MUF="1.0" PDF="13152" > PDF=13100 MemberID=52 </weight>
<weight id="1578" MUR="1.0" MUF="1.0" PDF="13153" > PDF=13100 MemberID=53 </weight>
<weight id="1579" MUR="1.0" MUF="1.0" PDF="13154" > PDF=13100 MemberID=54 </weight>
<weight id="1580" MUR="1.0" MUF="1.0" PDF="13155" > PDF=13100 MemberID=55 </weight>
<weight id="1581" MUR="1.0" MUF="1.0" PDF="13156" > PDF=13100 MemberID=56 </weight>
</weightgroup> # PDFSET -> PDF
<weight id="1582" MUR="1.0" MUF="1.0" PDF="13163" > PDF=13163 MemberID=0 </weight>
<weight id="1583" MUR="1.0" MUF="1.0" PDF="13167" > PDF=13167 MemberID=0 </weight>
<weight id="1584" MUR="1.0" MUF="1.0" PDF="13200" > PDF=13200 MemberID=0 </weight>
<weightgroup name="MMHT2014nlo68clas118" combine="hessian"> # 25200: MMHT 2014 NLO (68% C.L.) alpha_S=0.118. mem=0 ; central value; mem=1-50 ; 25 eigenvector sets (+/- directions). See Section 6 of arXiv:0901.0002 for error calculation. Web address: www.hep.ucl.ac.uk/mmht
<weight id="1585" MUR="1.0" MUF="1.0" PDF="25200" > PDF=25200 MemberID=0 </weight>
<weight id="1586" MUR="1.0" MUF="1.0" PDF="25201" > PDF=25200 MemberID=1 </weight>
<weight id="1587" MUR="1.0" MUF="1.0" PDF="25202" > PDF=25200 MemberID=2 </weight>
<weight id="1588" MUR="1.0" MUF="1.0" PDF="25203" > PDF=25200 MemberID=3 </weight>
<weight id="1589" MUR="1.0" MUF="1.0" PDF="25204" > PDF=25200 MemberID=4 </weight>
<weight id="1590" MUR="1.0" MUF="1.0" PDF="25205" > PDF=25200 MemberID=5 </weight>
<weight id="1591" MUR="1.0" MUF="1.0" PDF="25206" > PDF=25200 MemberID=6 </weight>
<weight id="1592" MUR="1.0" MUF="1.0" PDF="25207" > PDF=25200 MemberID=7 </weight>
<weight id="1593" MUR="1.0" MUF="1.0" PDF="25208" > PDF=25200 MemberID=8 </weight>
<weight id="1594" MUR="1.0" MUF="1.0" PDF="25209" > PDF=25200 MemberID=9 </weight>
<weight id="1595" MUR="1.0" MUF="1.0" PDF="25210" > PDF=25200 MemberID=10 </weight>
<weight id="1596" MUR="1.0" MUF="1.0" PDF="25211" > PDF=25200 MemberID=11 </weight>
<weight id="1597" MUR="1.0" MUF="1.0" PDF="25212" > PDF=25200 MemberID=12 </weight>
<weight id="1598" MUR="1.0" MUF="1.0" PDF="25213" > PDF=25200 MemberID=13 </weight>
<weight id="1599" MUR="1.0" MUF="1.0" PDF="25214" > PDF=25200 MemberID=14 </weight>
<weight id="1600" MUR="1.0" MUF="1.0" PDF="25215" > PDF=25200 MemberID=15 </weight>
<weight id="1601" MUR="1.0" MUF="1.0" PDF="25216" > PDF=25200 MemberID=16 </weight>
<weight id="1602" MUR="1.0" MUF="1.0" PDF="25217" > PDF=25200 MemberID=17 </weight>
<weight id="1603" MUR="1.0" MUF="1.0" PDF="25218" > PDF=25200 MemberID=18 </weight>
<weight id="1604" MUR="1.0" MUF="1.0" PDF="25219" > PDF=25200 MemberID=19 </weight>
<weight id="1605" MUR="1.0" MUF="1.0" PDF="25220" > PDF=25200 MemberID=20 </weight>
<weight id="1606" MUR="1.0" MUF="1.0" PDF="25221" > PDF=25200 MemberID=21 </weight>
<weight id="1607" MUR="1.0" MUF="1.0" PDF="25222" > PDF=25200 MemberID=22 </weight>
<weight id="1608" MUR="1.0" MUF="1.0" PDF="25223" > PDF=25200 MemberID=23 </weight>
<weight id="1609" MUR="1.0" MUF="1.0" PDF="25224" > PDF=25200 MemberID=24 </weight>
<weight id="1610" MUR="1.0" MUF="1.0" PDF="25225" > PDF=25200 MemberID=25 </weight>
<weight id="1611" MUR="1.0" MUF="1.0" PDF="25226" > PDF=25200 MemberID=26 </weight>
<weight id="1612" MUR="1.0" MUF="1.0" PDF="25227" > PDF=25200 MemberID=27 </weight>
<weight id="1613" MUR="1.0" MUF="1.0" PDF="25228" > PDF=25200 MemberID=28 </weight>
<weight id="1614" MUR="1.0" MUF="1.0" PDF="25229" > PDF=25200 MemberID=29 </weight>
<weight id="1615" MUR="1.0" MUF="1.0" PDF="25230" > PDF=25200 MemberID=30 </weight>
<weight id="1616" MUR="1.0" MUF="1.0" PDF="25231" > PDF=25200 MemberID=31 </weight>
<weight id="1617" MUR="1.0" MUF="1.0" PDF="25232" > PDF=25200 MemberID=32 </weight>
<weight id="1618" MUR="1.0" MUF="1.0" PDF="25233" > PDF=25200 MemberID=33 </weight>
<weight id="1619" MUR="1.0" MUF="1.0" PDF="25234" > PDF=25200 MemberID=34 </weight>
<weight id="1620" MUR="1.0" MUF="1.0" PDF="25235" > PDF=25200 MemberID=35 </weight>
<weight id="1621" MUR="1.0" MUF="1.0" PDF="25236" > PDF=25200 MemberID=36 </weight>
<weight id="1622" MUR="1.0" MUF="1.0" PDF="25237" > PDF=25200 MemberID=37 </weight>
<weight id="1623" MUR="1.0" MUF="1.0" PDF="25238" > PDF=25200 MemberID=38 </weight>
<weight id="1624" MUR="1.0" MUF="1.0" PDF="25239" > PDF=25200 MemberID=39 </weight>
<weight id="1625" MUR="1.0" MUF="1.0" PDF="25240" > PDF=25200 MemberID=40 </weight>
<weight id="1626" MUR="1.0" MUF="1.0" PDF="25241" > PDF=25200 MemberID=41 </weight>
<weight id="1627" MUR="1.0" MUF="1.0" PDF="25242" > PDF=25200 MemberID=42 </weight>
<weight id="1628" MUR="1.0" MUF="1.0" PDF="25243" > PDF=25200 MemberID=43 </weight>
<weight id="1629" MUR="1.0" MUF="1.0" PDF="25244" > PDF=25200 MemberID=44 </weight>
<weight id="1630" MUR="1.0" MUF="1.0" PDF="25245" > PDF=25200 MemberID=45 </weight>
<weight id="1631" MUR="1.0" MUF="1.0" PDF="25246" > PDF=25200 MemberID=46 </weight>
<weight id="1632" MUR="1.0" MUF="1.0" PDF="25247" > PDF=25200 MemberID=47 </weight>
<weight id="1633" MUR="1.0" MUF="1.0" PDF="25248" > PDF=25200 MemberID=48 </weight>
<weight id="1634" MUR="1.0" MUF="1.0" PDF="25249" > PDF=25200 MemberID=49 </weight>
<weight id="1635" MUR="1.0" MUF="1.0" PDF="25250" > PDF=25200 MemberID=50 </weight>
</weightgroup> # PDFSET -> PDFSET
<weightgroup name="MMHT2014nnlo68cl" combine="hessian"> # 25300: MMHT 2014 NNLO (68% C.L.). mem=0 ; central value; mem=1-50 ; 25 eigenvector sets (+/- directions). See Section 6 of arXiv:0901.0002 for error calculation. Web address: www.hep.ucl.ac.uk/mmht
<weight id="1636" MUR="1.0" MUF="1.0" PDF="25300" > PDF=25300 MemberID=0 </weight>
<weight id="1637" MUR="1.0" MUF="1.0" PDF="25301" > PDF=25300 MemberID=1 </weight>
<weight id="1638" MUR="1.0" MUF="1.0" PDF="25302" > PDF=25300 MemberID=2 </weight>
<weight id="1639" MUR="1.0" MUF="1.0" PDF="25303" > PDF=25300 MemberID=3 </weight>
<weight id="1640" MUR="1.0" MUF="1.0" PDF="25304" > PDF=25300 MemberID=4 </weight>
<weight id="1641" MUR="1.0" MUF="1.0" PDF="25305" > PDF=25300 MemberID=5 </weight>
<weight id="1642" MUR="1.0" MUF="1.0" PDF="25306" > PDF=25300 MemberID=6 </weight>
<weight id="1643" MUR="1.0" MUF="1.0" PDF="25307" > PDF=25300 MemberID=7 </weight>
<weight id="1644" MUR="1.0" MUF="1.0" PDF="25308" > PDF=25300 MemberID=8 </weight>
<weight id="1645" MUR="1.0" MUF="1.0" PDF="25309" > PDF=25300 MemberID=9 </weight>
<weight id="1646" MUR="1.0" MUF="1.0" PDF="25310" > PDF=25300 MemberID=10 </weight>
<weight id="1647" MUR="1.0" MUF="1.0" PDF="25311" > PDF=25300 MemberID=11 </weight>
<weight id="1648" MUR="1.0" MUF="1.0" PDF="25312" > PDF=25300 MemberID=12 </weight>
<weight id="1649" MUR="1.0" MUF="1.0" PDF="25313" > PDF=25300 MemberID=13 </weight>
<weight id="1650" MUR="1.0" MUF="1.0" PDF="25314" > PDF=25300 MemberID=14 </weight>
<weight id="1651" MUR="1.0" MUF="1.0" PDF="25315" > PDF=25300 MemberID=15 </weight>
<weight id="1652" MUR="1.0" MUF="1.0" PDF="25316" > PDF=25300 MemberID=16 </weight>
<weight id="1653" MUR="1.0" MUF="1.0" PDF="25317" > PDF=25300 MemberID=17 </weight>
<weight id="1654" MUR="1.0" MUF="1.0" PDF="25318" > PDF=25300 MemberID=18 </weight>
<weight id="1655" MUR="1.0" MUF="1.0" PDF="25319" > PDF=25300 MemberID=19 </weight>
<weight id="1656" MUR="1.0" MUF="1.0" PDF="25320" > PDF=25300 MemberID=20 </weight>
<weight id="1657" MUR="1.0" MUF="1.0" PDF="25321" > PDF=25300 MemberID=21 </weight>
<weight id="1658" MUR="1.0" MUF="1.0" PDF="25322" > PDF=25300 MemberID=22 </weight>
<weight id="1659" MUR="1.0" MUF="1.0" PDF="25323" > PDF=25300 MemberID=23 </weight>
<weight id="1660" MUR="1.0" MUF="1.0" PDF="25324" > PDF=25300 MemberID=24 </weight>
<weight id="1661" MUR="1.0" MUF="1.0" PDF="25325" > PDF=25300 MemberID=25 </weight>
<weight id="1662" MUR="1.0" MUF="1.0" PDF="25326" > PDF=25300 MemberID=26 </weight>
<weight id="1663" MUR="1.0" MUF="1.0" PDF="25327" > PDF=25300 MemberID=27 </weight>
<weight id="1664" MUR="1.0" MUF="1.0" PDF="25328" > PDF=25300 MemberID=28 </weight>
<weight id="1665" MUR="1.0" MUF="1.0" PDF="25329" > PDF=25300 MemberID=29 </weight>
<weight id="1666" MUR="1.0" MUF="1.0" PDF="25330" > PDF=25300 MemberID=30 </weight>
<weight id="1667" MUR="1.0" MUF="1.0" PDF="25331" > PDF=25300 MemberID=31 </weight>
<weight id="1668" MUR="1.0" MUF="1.0" PDF="25332" > PDF=25300 MemberID=32 </weight>
<weight id="1669" MUR="1.0" MUF="1.0" PDF="25333" > PDF=25300 MemberID=33 </weight>
<weight id="1670" MUR="1.0" MUF="1.0" PDF="25334" > PDF=25300 MemberID=34 </weight>
<weight id="1671" MUR="1.0" MUF="1.0" PDF="25335" > PDF=25300 MemberID=35 </weight>
<weight id="1672" MUR="1.0" MUF="1.0" PDF="25336" > PDF=25300 MemberID=36 </weight>
<weight id="1673" MUR="1.0" MUF="1.0" PDF="25337" > PDF=25300 MemberID=37 </weight>
<weight id="1674" MUR="1.0" MUF="1.0" PDF="25338" > PDF=25300 MemberID=38 </weight>
<weight id="1675" MUR="1.0" MUF="1.0" PDF="25339" > PDF=25300 MemberID=39 </weight>
<weight id="1676" MUR="1.0" MUF="1.0" PDF="25340" > PDF=25300 MemberID=40 </weight>
<weight id="1677" MUR="1.0" MUF="1.0" PDF="25341" > PDF=25300 MemberID=41 </weight>
<weight id="1678" MUR="1.0" MUF="1.0" PDF="25342" > PDF=25300 MemberID=42 </weight>
<weight id="1679" MUR="1.0" MUF="1.0" PDF="25343" > PDF=25300 MemberID=43 </weight>
<weight id="1680" MUR="1.0" MUF="1.0" PDF="25344" > PDF=25300 MemberID=44 </weight>
<weight id="1681" MUR="1.0" MUF="1.0" PDF="25345" > PDF=25300 MemberID=45 </weight>
<weight id="1682" MUR="1.0" MUF="1.0" PDF="25346" > PDF=25300 MemberID=46 </weight>
<weight id="1683" MUR="1.0" MUF="1.0" PDF="25347" > PDF=25300 MemberID=47 </weight>
<weight id="1684" MUR="1.0" MUF="1.0" PDF="25348" > PDF=25300 MemberID=48 </weight>
<weight id="1685" MUR="1.0" MUF="1.0" PDF="25349" > PDF=25300 MemberID=49 </weight>
<weight id="1686" MUR="1.0" MUF="1.0" PDF="25350" > PDF=25300 MemberID=50 </weight>
</weightgroup> # PDFSET -> PDF
<weight id="1687" MUR="1.0" MUF="1.0" PDF="25000" > PDF=25000 MemberID=0 </weight>
<weightgroup name="ABMP16als118_5_nnlo" combine="symmhessian"> # 42780: NNLO 5-flavour PDFs with different alphas_s for the ABMP16 set
<weight id="1688" MUR="1.0" MUF="1.0" PDF="42780" > PDF=42780 MemberID=0 </weight>
<weight id="1689" MUR="1.0" MUF="1.0" PDF="42781" > PDF=42780 MemberID=1 </weight>
<weight id="1690" MUR="1.0" MUF="1.0" PDF="42782" > PDF=42780 MemberID=2 </weight>
<weight id="1691" MUR="1.0" MUF="1.0" PDF="42783" > PDF=42780 MemberID=3 </weight>
<weight id="1692" MUR="1.0" MUF="1.0" PDF="42784" > PDF=42780 MemberID=4 </weight>
<weight id="1693" MUR="1.0" MUF="1.0" PDF="42785" > PDF=42780 MemberID=5 </weight>
<weight id="1694" MUR="1.0" MUF="1.0" PDF="42786" > PDF=42780 MemberID=6 </weight>
<weight id="1695" MUR="1.0" MUF="1.0" PDF="42787" > PDF=42780 MemberID=7 </weight>
<weight id="1696" MUR="1.0" MUF="1.0" PDF="42788" > PDF=42780 MemberID=8 </weight>
<weight id="1697" MUR="1.0" MUF="1.0" PDF="42789" > PDF=42780 MemberID=9 </weight>
<weight id="1698" MUR="1.0" MUF="1.0" PDF="42790" > PDF=42780 MemberID=10 </weight>
<weight id="1699" MUR="1.0" MUF="1.0" PDF="42791" > PDF=42780 MemberID=11 </weight>
<weight id="1700" MUR="1.0" MUF="1.0" PDF="42792" > PDF=42780 MemberID=12 </weight>
<weight id="1701" MUR="1.0" MUF="1.0" PDF="42793" > PDF=42780 MemberID=13 </weight>
<weight id="1702" MUR="1.0" MUF="1.0" PDF="42794" > PDF=42780 MemberID=14 </weight>
<weight id="1703" MUR="1.0" MUF="1.0" PDF="42795" > PDF=42780 MemberID=15 </weight>
<weight id="1704" MUR="1.0" MUF="1.0" PDF="42796" > PDF=42780 MemberID=16 </weight>
<weight id="1705" MUR="1.0" MUF="1.0" PDF="42797" > PDF=42780 MemberID=17 </weight>
<weight id="1706" MUR="1.0" MUF="1.0" PDF="42798" > PDF=42780 MemberID=18 </weight>
<weight id="1707" MUR="1.0" MUF="1.0" PDF="42799" > PDF=42780 MemberID=19 </weight>
<weight id="1708" MUR="1.0" MUF="1.0" PDF="42800" > PDF=42780 MemberID=20 </weight>
<weight id="1709" MUR="1.0" MUF="1.0" PDF="42801" > PDF=42780 MemberID=21 </weight>
<weight id="1710" MUR="1.0" MUF="1.0" PDF="42802" > PDF=42780 MemberID=22 </weight>
<weight id="1711" MUR="1.0" MUF="1.0" PDF="42803" > PDF=42780 MemberID=23 </weight>
<weight id="1712" MUR="1.0" MUF="1.0" PDF="42804" > PDF=42780 MemberID=24 </weight>
<weight id="1713" MUR="1.0" MUF="1.0" PDF="42805" > PDF=42780 MemberID=25 </weight>
<weight id="1714" MUR="1.0" MUF="1.0" PDF="42806" > PDF=42780 MemberID=26 </weight>
<weight id="1715" MUR="1.0" MUF="1.0" PDF="42807" > PDF=42780 MemberID=27 </weight>
<weight id="1716" MUR="1.0" MUF="1.0" PDF="42808" > PDF=42780 MemberID=28 </weight>
<weight id="1717" MUR="1.0" MUF="1.0" PDF="42809" > PDF=42780 MemberID=29 </weight>
</weightgroup> # PDFSET -> PDFSET
<weightgroup name="PDF4LHC15_nlo_100_pdfas" combine="symmhessian+as"> # 90200: PDF4LHC15_nlo_100_pdfas. mem=0 ; alphas(MZ)=0.118 central value; mem=1-100 ; PDF symmetric eigenvectors; mem=101 ; alphas(MZ)=0.1165 central value; mem=102 ; alphas(MZ)=0.1195
<weight id="1718" MUR="1.0" MUF="1.0" PDF="90200" > PDF=90200 MemberID=0 </weight>
<weight id="1719" MUR="1.0" MUF="1.0" PDF="90201" > PDF=90200 MemberID=1 </weight>
<weight id="1720" MUR="1.0" MUF="1.0" PDF="90202" > PDF=90200 MemberID=2 </weight>
<weight id="1721" MUR="1.0" MUF="1.0" PDF="90203" > PDF=90200 MemberID=3 </weight>
<weight id="1722" MUR="1.0" MUF="1.0" PDF="90204" > PDF=90200 MemberID=4 </weight>
<weight id="1723" MUR="1.0" MUF="1.0" PDF="90205" > PDF=90200 MemberID=5 </weight>
<weight id="1724" MUR="1.0" MUF="1.0" PDF="90206" > PDF=90200 MemberID=6 </weight>
<weight id="1725" MUR="1.0" MUF="1.0" PDF="90207" > PDF=90200 MemberID=7 </weight>
<weight id="1726" MUR="1.0" MUF="1.0" PDF="90208" > PDF=90200 MemberID=8 </weight>
<weight id="1727" MUR="1.0" MUF="1.0" PDF="90209" > PDF=90200 MemberID=9 </weight>
<weight id="1728" MUR="1.0" MUF="1.0" PDF="90210" > PDF=90200 MemberID=10 </weight>
<weight id="1729" MUR="1.0" MUF="1.0" PDF="90211" > PDF=90200 MemberID=11 </weight>
<weight id="1730" MUR="1.0" MUF="1.0" PDF="90212" > PDF=90200 MemberID=12 </weight>
<weight id="1731" MUR="1.0" MUF="1.0" PDF="90213" > PDF=90200 MemberID=13 </weight>
<weight id="1732" MUR="1.0" MUF="1.0" PDF="90214" > PDF=90200 MemberID=14 </weight>
<weight id="1733" MUR="1.0" MUF="1.0" PDF="90215" > PDF=90200 MemberID=15 </weight>
<weight id="1734" MUR="1.0" MUF="1.0" PDF="90216" > PDF=90200 MemberID=16 </weight>
<weight id="1735" MUR="1.0" MUF="1.0" PDF="90217" > PDF=90200 MemberID=17 </weight>
<weight id="1736" MUR="1.0" MUF="1.0" PDF="90218" > PDF=90200 MemberID=18 </weight>
<weight id="1737" MUR="1.0" MUF="1.0" PDF="90219" > PDF=90200 MemberID=19 </weight>
<weight id="1738" MUR="1.0" MUF="1.0" PDF="90220" > PDF=90200 MemberID=20 </weight>
<weight id="1739" MUR="1.0" MUF="1.0" PDF="90221" > PDF=90200 MemberID=21 </weight>
<weight id="1740" MUR="1.0" MUF="1.0" PDF="90222" > PDF=90200 MemberID=22 </weight>
<weight id="1741" MUR="1.0" MUF="1.0" PDF="90223" > PDF=90200 MemberID=23 </weight>
<weight id="1742" MUR="1.0" MUF="1.0" PDF="90224" > PDF=90200 MemberID=24 </weight>
<weight id="1743" MUR="1.0" MUF="1.0" PDF="90225" > PDF=90200 MemberID=25 </weight>
<weight id="1744" MUR="1.0" MUF="1.0" PDF="90226" > PDF=90200 MemberID=26 </weight>
<weight id="1745" MUR="1.0" MUF="1.0" PDF="90227" > PDF=90200 MemberID=27 </weight>
<weight id="1746" MUR="1.0" MUF="1.0" PDF="90228" > PDF=90200 MemberID=28 </weight>
<weight id="1747" MUR="1.0" MUF="1.0" PDF="90229" > PDF=90200 MemberID=29 </weight>
<weight id="1748" MUR="1.0" MUF="1.0" PDF="90230" > PDF=90200 MemberID=30 </weight>
<weight id="1749" MUR="1.0" MUF="1.0" PDF="90231" > PDF=90200 MemberID=31 </weight>
<weight id="1750" MUR="1.0" MUF="1.0" PDF="90232" > PDF=90200 MemberID=32 </weight>
<weight id="1751" MUR="1.0" MUF="1.0" PDF="90233" > PDF=90200 MemberID=33 </weight>
<weight id="1752" MUR="1.0" MUF="1.0" PDF="90234" > PDF=90200 MemberID=34 </weight>
<weight id="1753" MUR="1.0" MUF="1.0" PDF="90235" > PDF=90200 MemberID=35 </weight>
<weight id="1754" MUR="1.0" MUF="1.0" PDF="90236" > PDF=90200 MemberID=36 </weight>
<weight id="1755" MUR="1.0" MUF="1.0" PDF="90237" > PDF=90200 MemberID=37 </weight>
<weight id="1756" MUR="1.0" MUF="1.0" PDF="90238" > PDF=90200 MemberID=38 </weight>
<weight id="1757" MUR="1.0" MUF="1.0" PDF="90239" > PDF=90200 MemberID=39 </weight>
<weight id="1758" MUR="1.0" MUF="1.0" PDF="90240" > PDF=90200 MemberID=40 </weight>
<weight id="1759" MUR="1.0" MUF="1.0" PDF="90241" > PDF=90200 MemberID=41 </weight>
<weight id="1760" MUR="1.0" MUF="1.0" PDF="90242" > PDF=90200 MemberID=42 </weight>
<weight id="1761" MUR="1.0" MUF="1.0" PDF="90243" > PDF=90200 MemberID=43 </weight>
<weight id="1762" MUR="1.0" MUF="1.0" PDF="90244" > PDF=90200 MemberID=44 </weight>
<weight id="1763" MUR="1.0" MUF="1.0" PDF="90245" > PDF=90200 MemberID=45 </weight>
<weight id="1764" MUR="1.0" MUF="1.0" PDF="90246" > PDF=90200 MemberID=46 </weight>
<weight id="1765" MUR="1.0" MUF="1.0" PDF="90247" > PDF=90200 MemberID=47 </weight>
<weight id="1766" MUR="1.0" MUF="1.0" PDF="90248" > PDF=90200 MemberID=48 </weight>
<weight id="1767" MUR="1.0" MUF="1.0" PDF="90249" > PDF=90200 MemberID=49 </weight>
<weight id="1768" MUR="1.0" MUF="1.0" PDF="90250" > PDF=90200 MemberID=50 </weight>
<weight id="1769" MUR="1.0" MUF="1.0" PDF="90251" > PDF=90200 MemberID=51 </weight>
<weight id="1770" MUR="1.0" MUF="1.0" PDF="90252" > PDF=90200 MemberID=52 </weight>
<weight id="1771" MUR="1.0" MUF="1.0" PDF="90253" > PDF=90200 MemberID=53 </weight>
<weight id="1772" MUR="1.0" MUF="1.0" PDF="90254" > PDF=90200 MemberID=54 </weight>
<weight id="1773" MUR="1.0" MUF="1.0" PDF="90255" > PDF=90200 MemberID=55 </weight>
<weight id="1774" MUR="1.0" MUF="1.0" PDF="90256" > PDF=90200 MemberID=56 </weight>
<weight id="1775" MUR="1.0" MUF="1.0" PDF="90257" > PDF=90200 MemberID=57 </weight>
<weight id="1776" MUR="1.0" MUF="1.0" PDF="90258" > PDF=90200 MemberID=58 </weight>
<weight id="1777" MUR="1.0" MUF="1.0" PDF="90259" > PDF=90200 MemberID=59 </weight>
<weight id="1778" MUR="1.0" MUF="1.0" PDF="90260" > PDF=90200 MemberID=60 </weight>
<weight id="1779" MUR="1.0" MUF="1.0" PDF="90261" > PDF=90200 MemberID=61 </weight>
<weight id="1780" MUR="1.0" MUF="1.0" PDF="90262" > PDF=90200 MemberID=62 </weight>
<weight id="1781" MUR="1.0" MUF="1.0" PDF="90263" > PDF=90200 MemberID=63 </weight>
<weight id="1782" MUR="1.0" MUF="1.0" PDF="90264" > PDF=90200 MemberID=64 </weight>
<weight id="1783" MUR="1.0" MUF="1.0" PDF="90265" > PDF=90200 MemberID=65 </weight>
<weight id="1784" MUR="1.0" MUF="1.0" PDF="90266" > PDF=90200 MemberID=66 </weight>
<weight id="1785" MUR="1.0" MUF="1.0" PDF="90267" > PDF=90200 MemberID=67 </weight>
<weight id="1786" MUR="1.0" MUF="1.0" PDF="90268" > PDF=90200 MemberID=68 </weight>
<weight id="1787" MUR="1.0" MUF="1.0" PDF="90269" > PDF=90200 MemberID=69 </weight>
<weight id="1788" MUR="1.0" MUF="1.0" PDF="90270" > PDF=90200 MemberID=70 </weight>
<weight id="1789" MUR="1.0" MUF="1.0" PDF="90271" > PDF=90200 MemberID=71 </weight>
<weight id="1790" MUR="1.0" MUF="1.0" PDF="90272" > PDF=90200 MemberID=72 </weight>
<weight id="1791" MUR="1.0" MUF="1.0" PDF="90273" > PDF=90200 MemberID=73 </weight>
<weight id="1792" MUR="1.0" MUF="1.0" PDF="90274" > PDF=90200 MemberID=74 </weight>
<weight id="1793" MUR="1.0" MUF="1.0" PDF="90275" > PDF=90200 MemberID=75 </weight>
<weight id="1794" MUR="1.0" MUF="1.0" PDF="90276" > PDF=90200 MemberID=76 </weight>
<weight id="1795" MUR="1.0" MUF="1.0" PDF="90277" > PDF=90200 MemberID=77 </weight>
<weight id="1796" MUR="1.0" MUF="1.0" PDF="90278" > PDF=90200 MemberID=78 </weight>
<weight id="1797" MUR="1.0" MUF="1.0" PDF="90279" > PDF=90200 MemberID=79 </weight>
<weight id="1798" MUR="1.0" MUF="1.0" PDF="90280" > PDF=90200 MemberID=80 </weight>
<weight id="1799" MUR="1.0" MUF="1.0" PDF="90281" > PDF=90200 MemberID=81 </weight>
<weight id="1800" MUR="1.0" MUF="1.0" PDF="90282" > PDF=90200 MemberID=82 </weight>
<weight id="1801" MUR="1.0" MUF="1.0" PDF="90283" > PDF=90200 MemberID=83 </weight>
<weight id="1802" MUR="1.0" MUF="1.0" PDF="90284" > PDF=90200 MemberID=84 </weight>
<weight id="1803" MUR="1.0" MUF="1.0" PDF="90285" > PDF=90200 MemberID=85 </weight>
<weight id="1804" MUR="1.0" MUF="1.0" PDF="90286" > PDF=90200 MemberID=86 </weight>
<weight id="1805" MUR="1.0" MUF="1.0" PDF="90287" > PDF=90200 MemberID=87 </weight>
<weight id="1806" MUR="1.0" MUF="1.0" PDF="90288" > PDF=90200 MemberID=88 </weight>
<weight id="1807" MUR="1.0" MUF="1.0" PDF="90289" > PDF=90200 MemberID=89 </weight>
<weight id="1808" MUR="1.0" MUF="1.0" PDF="90290" > PDF=90200 MemberID=90 </weight>
<weight id="1809" MUR="1.0" MUF="1.0" PDF="90291" > PDF=90200 MemberID=91 </weight>
<weight id="1810" MUR="1.0" MUF="1.0" PDF="90292" > PDF=90200 MemberID=92 </weight>
<weight id="1811" MUR="1.0" MUF="1.0" PDF="90293" > PDF=90200 MemberID=93 </weight>
<weight id="1812" MUR="1.0" MUF="1.0" PDF="90294" > PDF=90200 MemberID=94 </weight>
<weight id="1813" MUR="1.0" MUF="1.0" PDF="90295" > PDF=90200 MemberID=95 </weight>
<weight id="1814" MUR="1.0" MUF="1.0" PDF="90296" > PDF=90200 MemberID=96 </weight>
<weight id="1815" MUR="1.0" MUF="1.0" PDF="90297" > PDF=90200 MemberID=97 </weight>
<weight id="1816" MUR="1.0" MUF="1.0" PDF="90298" > PDF=90200 MemberID=98 </weight>
<weight id="1817" MUR="1.0" MUF="1.0" PDF="90299" > PDF=90200 MemberID=99 </weight>
<weight id="1818" MUR="1.0" MUF="1.0" PDF="90300" > PDF=90200 MemberID=100 </weight>
<weight id="1819" MUR="1.0" MUF="1.0" PDF="90301" > PDF=90200 MemberID=101 </weight>
<weight id="1820" MUR="1.0" MUF="1.0" PDF="90302" > PDF=90200 MemberID=102 </weight>
</weightgroup> # PDFSET -> PDFSET
<weightgroup name="PDF4LHC15_nnlo_100_pdfas" combine="symmhessian+as"> # 91200: PDF4LHC15_nnlo_100_pdfas. mem=0 ; alphas(MZ)=0.118 central value; mem=1-100 ; PDF symmetric eigenvectors; mem=101 ; alphas(MZ)=0.1165 central value; mem=102 ; alphas(MZ)=0.1195
<weight id="1821" MUR="1.0" MUF="1.0" PDF="91200" > PDF=91200 MemberID=0 </weight>
<weight id="1822" MUR="1.0" MUF="1.0" PDF="91201" > PDF=91200 MemberID=1 </weight>
<weight id="1823" MUR="1.0" MUF="1.0" PDF="91202" > PDF=91200 MemberID=2 </weight>
<weight id="1824" MUR="1.0" MUF="1.0" PDF="91203" > PDF=91200 MemberID=3 </weight>
<weight id="1825" MUR="1.0" MUF="1.0" PDF="91204" > PDF=91200 MemberID=4 </weight>
<weight id="1826" MUR="1.0" MUF="1.0" PDF="91205" > PDF=91200 MemberID=5 </weight>
<weight id="1827" MUR="1.0" MUF="1.0" PDF="91206" > PDF=91200 MemberID=6 </weight>
<weight id="1828" MUR="1.0" MUF="1.0" PDF="91207" > PDF=91200 MemberID=7 </weight>
<weight id="1829" MUR="1.0" MUF="1.0" PDF="91208" > PDF=91200 MemberID=8 </weight>
<weight id="1830" MUR="1.0" MUF="1.0" PDF="91209" > PDF=91200 MemberID=9 </weight>
<weight id="1831" MUR="1.0" MUF="1.0" PDF="91210" > PDF=91200 MemberID=10 </weight>
<weight id="1832" MUR="1.0" MUF="1.0" PDF="91211" > PDF=91200 MemberID=11 </weight>
<weight id="1833" MUR="1.0" MUF="1.0" PDF="91212" > PDF=91200 MemberID=12 </weight>
<weight id="1834" MUR="1.0" MUF="1.0" PDF="91213" > PDF=91200 MemberID=13 </weight>
<weight id="1835" MUR="1.0" MUF="1.0" PDF="91214" > PDF=91200 MemberID=14 </weight>
<weight id="1836" MUR="1.0" MUF="1.0" PDF="91215" > PDF=91200 MemberID=15 </weight>
<weight id="1837" MUR="1.0" MUF="1.0" PDF="91216" > PDF=91200 MemberID=16 </weight>
<weight id="1838" MUR="1.0" MUF="1.0" PDF="91217" > PDF=91200 MemberID=17 </weight>
<weight id="1839" MUR="1.0" MUF="1.0" PDF="91218" > PDF=91200 MemberID=18 </weight>
<weight id="1840" MUR="1.0" MUF="1.0" PDF="91219" > PDF=91200 MemberID=19 </weight>
<weight id="1841" MUR="1.0" MUF="1.0" PDF="91220" > PDF=91200 MemberID=20 </weight>
<weight id="1842" MUR="1.0" MUF="1.0" PDF="91221" > PDF=91200 MemberID=21 </weight>
<weight id="1843" MUR="1.0" MUF="1.0" PDF="91222" > PDF=91200 MemberID=22 </weight>
<weight id="1844" MUR="1.0" MUF="1.0" PDF="91223" > PDF=91200 MemberID=23 </weight>
<weight id="1845" MUR="1.0" MUF="1.0" PDF="91224" > PDF=91200 MemberID=24 </weight>
<weight id="1846" MUR="1.0" MUF="1.0" PDF="91225" > PDF=91200 MemberID=25 </weight>
<weight id="1847" MUR="1.0" MUF="1.0" PDF="91226" > PDF=91200 MemberID=26 </weight>
<weight id="1848" MUR="1.0" MUF="1.0" PDF="91227" > PDF=91200 MemberID=27 </weight>
<weight id="1849" MUR="1.0" MUF="1.0" PDF="91228" > PDF=91200 MemberID=28 </weight>
<weight id="1850" MUR="1.0" MUF="1.0" PDF="91229" > PDF=91200 MemberID=29 </weight>
<weight id="1851" MUR="1.0" MUF="1.0" PDF="91230" > PDF=91200 MemberID=30 </weight>
<weight id="1852" MUR="1.0" MUF="1.0" PDF="91231" > PDF=91200 MemberID=31 </weight>
<weight id="1853" MUR="1.0" MUF="1.0" PDF="91232" > PDF=91200 MemberID=32 </weight>
<weight id="1854" MUR="1.0" MUF="1.0" PDF="91233" > PDF=91200 MemberID=33 </weight>
<weight id="1855" MUR="1.0" MUF="1.0" PDF="91234" > PDF=91200 MemberID=34 </weight>
<weight id="1856" MUR="1.0" MUF="1.0" PDF="91235" > PDF=91200 MemberID=35 </weight>
<weight id="1857" MUR="1.0" MUF="1.0" PDF="91236" > PDF=91200 MemberID=36 </weight>
<weight id="1858" MUR="1.0" MUF="1.0" PDF="91237" > PDF=91200 MemberID=37 </weight>
<weight id="1859" MUR="1.0" MUF="1.0" PDF="91238" > PDF=91200 MemberID=38 </weight>
<weight id="1860" MUR="1.0" MUF="1.0" PDF="91239" > PDF=91200 MemberID=39 </weight>
<weight id="1861" MUR="1.0" MUF="1.0" PDF="91240" > PDF=91200 MemberID=40 </weight>
<weight id="1862" MUR="1.0" MUF="1.0" PDF="91241" > PDF=91200 MemberID=41 </weight>
<weight id="1863" MUR="1.0" MUF="1.0" PDF="91242" > PDF=91200 MemberID=42 </weight>
<weight id="1864" MUR="1.0" MUF="1.0" PDF="91243" > PDF=91200 MemberID=43 </weight>
<weight id="1865" MUR="1.0" MUF="1.0" PDF="91244" > PDF=91200 MemberID=44 </weight>
<weight id="1866" MUR="1.0" MUF="1.0" PDF="91245" > PDF=91200 MemberID=45 </weight>
<weight id="1867" MUR="1.0" MUF="1.0" PDF="91246" > PDF=91200 MemberID=46 </weight>
<weight id="1868" MUR="1.0" MUF="1.0" PDF="91247" > PDF=91200 MemberID=47 </weight>
<weight id="1869" MUR="1.0" MUF="1.0" PDF="91248" > PDF=91200 MemberID=48 </weight>
<weight id="1870" MUR="1.0" MUF="1.0" PDF="91249" > PDF=91200 MemberID=49 </weight>
<weight id="1871" MUR="1.0" MUF="1.0" PDF="91250" > PDF=91200 MemberID=50 </weight>
<weight id="1872" MUR="1.0" MUF="1.0" PDF="91251" > PDF=91200 MemberID=51 </weight>
<weight id="1873" MUR="1.0" MUF="1.0" PDF="91252" > PDF=91200 MemberID=52 </weight>
<weight id="1874" MUR="1.0" MUF="1.0" PDF="91253" > PDF=91200 MemberID=53 </weight>
<weight id="1875" MUR="1.0" MUF="1.0" PDF="91254" > PDF=91200 MemberID=54 </weight>
<weight id="1876" MUR="1.0" MUF="1.0" PDF="91255" > PDF=91200 MemberID=55 </weight>
<weight id="1877" MUR="1.0" MUF="1.0" PDF="91256" > PDF=91200 MemberID=56 </weight>
<weight id="1878" MUR="1.0" MUF="1.0" PDF="91257" > PDF=91200 MemberID=57 </weight>
<weight id="1879" MUR="1.0" MUF="1.0" PDF="91258" > PDF=91200 MemberID=58 </weight>
<weight id="1880" MUR="1.0" MUF="1.0" PDF="91259" > PDF=91200 MemberID=59 </weight>
<weight id="1881" MUR="1.0" MUF="1.0" PDF="91260" > PDF=91200 MemberID=60 </weight>
<weight id="1882" MUR="1.0" MUF="1.0" PDF="91261" > PDF=91200 MemberID=61 </weight>
<weight id="1883" MUR="1.0" MUF="1.0" PDF="91262" > PDF=91200 MemberID=62 </weight>
<weight id="1884" MUR="1.0" MUF="1.0" PDF="91263" > PDF=91200 MemberID=63 </weight>
<weight id="1885" MUR="1.0" MUF="1.0" PDF="91264" > PDF=91200 MemberID=64 </weight>
<weight id="1886" MUR="1.0" MUF="1.0" PDF="91265" > PDF=91200 MemberID=65 </weight>
<weight id="1887" MUR="1.0" MUF="1.0" PDF="91266" > PDF=91200 MemberID=66 </weight>
<weight id="1888" MUR="1.0" MUF="1.0" PDF="91267" > PDF=91200 MemberID=67 </weight>
<weight id="1889" MUR="1.0" MUF="1.0" PDF="91268" > PDF=91200 MemberID=68 </weight>
<weight id="1890" MUR="1.0" MUF="1.0" PDF="91269" > PDF=91200 MemberID=69 </weight>
<weight id="1891" MUR="1.0" MUF="1.0" PDF="91270" > PDF=91200 MemberID=70 </weight>
<weight id="1892" MUR="1.0" MUF="1.0" PDF="91271" > PDF=91200 MemberID=71 </weight>
<weight id="1893" MUR="1.0" MUF="1.0" PDF="91272" > PDF=91200 MemberID=72 </weight>
<weight id="1894" MUR="1.0" MUF="1.0" PDF="91273" > PDF=91200 MemberID=73 </weight>
<weight id="1895" MUR="1.0" MUF="1.0" PDF="91274" > PDF=91200 MemberID=74 </weight>
<weight id="1896" MUR="1.0" MUF="1.0" PDF="91275" > PDF=91200 MemberID=75 </weight>
<weight id="1897" MUR="1.0" MUF="1.0" PDF="91276" > PDF=91200 MemberID=76 </weight>
<weight id="1898" MUR="1.0" MUF="1.0" PDF="91277" > PDF=91200 MemberID=77 </weight>
<weight id="1899" MUR="1.0" MUF="1.0" PDF="91278" > PDF=91200 MemberID=78 </weight>
<weight id="1900" MUR="1.0" MUF="1.0" PDF="91279" > PDF=91200 MemberID=79 </weight>
<weight id="1901" MUR="1.0" MUF="1.0" PDF="91280" > PDF=91200 MemberID=80 </weight>
<weight id="1902" MUR="1.0" MUF="1.0" PDF="91281" > PDF=91200 MemberID=81 </weight>
<weight id="1903" MUR="1.0" MUF="1.0" PDF="91282" > PDF=91200 MemberID=82 </weight>
<weight id="1904" MUR="1.0" MUF="1.0" PDF="91283" > PDF=91200 MemberID=83 </weight>
<weight id="1905" MUR="1.0" MUF="1.0" PDF="91284" > PDF=91200 MemberID=84 </weight>
<weight id="1906" MUR="1.0" MUF="1.0" PDF="91285" > PDF=91200 MemberID=85 </weight>
<weight id="1907" MUR="1.0" MUF="1.0" PDF="91286" > PDF=91200 MemberID=86 </weight>
<weight id="1908" MUR="1.0" MUF="1.0" PDF="91287" > PDF=91200 MemberID=87 </weight>
<weight id="1909" MUR="1.0" MUF="1.0" PDF="91288" > PDF=91200 MemberID=88 </weight>
<weight id="1910" MUR="1.0" MUF="1.0" PDF="91289" > PDF=91200 MemberID=89 </weight>
<weight id="1911" MUR="1.0" MUF="1.0" PDF="91290" > PDF=91200 MemberID=90 </weight>
<weight id="1912" MUR="1.0" MUF="1.0" PDF="91291" > PDF=91200 MemberID=91 </weight>
<weight id="1913" MUR="1.0" MUF="1.0" PDF="91292" > PDF=91200 MemberID=92 </weight>
<weight id="1914" MUR="1.0" MUF="1.0" PDF="91293" > PDF=91200 MemberID=93 </weight>
<weight id="1915" MUR="1.0" MUF="1.0" PDF="91294" > PDF=91200 MemberID=94 </weight>
<weight id="1916" MUR="1.0" MUF="1.0" PDF="91295" > PDF=91200 MemberID=95 </weight>
<weight id="1917" MUR="1.0" MUF="1.0" PDF="91296" > PDF=91200 MemberID=96 </weight>
<weight id="1918" MUR="1.0" MUF="1.0" PDF="91297" > PDF=91200 MemberID=97 </weight>
<weight id="1919" MUR="1.0" MUF="1.0" PDF="91298" > PDF=91200 MemberID=98 </weight>
<weight id="1920" MUR="1.0" MUF="1.0" PDF="91299" > PDF=91200 MemberID=99 </weight>
<weight id="1921" MUR="1.0" MUF="1.0" PDF="91300" > PDF=91200 MemberID=100 </weight>
<weight id="1922" MUR="1.0" MUF="1.0" PDF="91301" > PDF=91200 MemberID=101 </weight>
<weight id="1923" MUR="1.0" MUF="1.0" PDF="91302" > PDF=91200 MemberID=102 </weight>
</weightgroup> # PDFSET -> PDFSET
<weightgroup name="PDF4LHC15_nlo_30_pdfas" combine="symmhessian+as"> # 90400: PDF4LHC15_nlo_30_pdfas. mem=0 ; alphas(MZ)=0.118 central value; mem=1-30 ; PDF symmetric eigenvectors; mem=31 ; alphas(MZ)=0.1165 central value; mem=32 ; alphas(MZ)=0.1195
<weight id="1924" MUR="1.0" MUF="1.0" PDF="90400" > PDF=90400 MemberID=0 </weight>
<weight id="1925" MUR="1.0" MUF="1.0" PDF="90401" > PDF=90400 MemberID=1 </weight>
<weight id="1926" MUR="1.0" MUF="1.0" PDF="90402" > PDF=90400 MemberID=2 </weight>
<weight id="1927" MUR="1.0" MUF="1.0" PDF="90403" > PDF=90400 MemberID=3 </weight>
<weight id="1928" MUR="1.0" MUF="1.0" PDF="90404" > PDF=90400 MemberID=4 </weight>
<weight id="1929" MUR="1.0" MUF="1.0" PDF="90405" > PDF=90400 MemberID=5 </weight>
<weight id="1930" MUR="1.0" MUF="1.0" PDF="90406" > PDF=90400 MemberID=6 </weight>
<weight id="1931" MUR="1.0" MUF="1.0" PDF="90407" > PDF=90400 MemberID=7 </weight>
<weight id="1932" MUR="1.0" MUF="1.0" PDF="90408" > PDF=90400 MemberID=8 </weight>
<weight id="1933" MUR="1.0" MUF="1.0" PDF="90409" > PDF=90400 MemberID=9 </weight>
<weight id="1934" MUR="1.0" MUF="1.0" PDF="90410" > PDF=90400 MemberID=10 </weight>
<weight id="1935" MUR="1.0" MUF="1.0" PDF="90411" > PDF=90400 MemberID=11 </weight>
<weight id="1936" MUR="1.0" MUF="1.0" PDF="90412" > PDF=90400 MemberID=12 </weight>
<weight id="1937" MUR="1.0" MUF="1.0" PDF="90413" > PDF=90400 MemberID=13 </weight>
<weight id="1938" MUR="1.0" MUF="1.0" PDF="90414" > PDF=90400 MemberID=14 </weight>
<weight id="1939" MUR="1.0" MUF="1.0" PDF="90415" > PDF=90400 MemberID=15 </weight>
<weight id="1940" MUR="1.0" MUF="1.0" PDF="90416" > PDF=90400 MemberID=16 </weight>
<weight id="1941" MUR="1.0" MUF="1.0" PDF="90417" > PDF=90400 MemberID=17 </weight>
<weight id="1942" MUR="1.0" MUF="1.0" PDF="90418" > PDF=90400 MemberID=18 </weight>
<weight id="1943" MUR="1.0" MUF="1.0" PDF="90419" > PDF=90400 MemberID=19 </weight>
<weight id="1944" MUR="1.0" MUF="1.0" PDF="90420" > PDF=90400 MemberID=20 </weight>
<weight id="1945" MUR="1.0" MUF="1.0" PDF="90421" > PDF=90400 MemberID=21 </weight>
<weight id="1946" MUR="1.0" MUF="1.0" PDF="90422" > PDF=90400 MemberID=22 </weight>
<weight id="1947" MUR="1.0" MUF="1.0" PDF="90423" > PDF=90400 MemberID=23 </weight>
<weight id="1948" MUR="1.0" MUF="1.0" PDF="90424" > PDF=90400 MemberID=24 </weight>
<weight id="1949" MUR="1.0" MUF="1.0" PDF="90425" > PDF=90400 MemberID=25 </weight>
<weight id="1950" MUR="1.0" MUF="1.0" PDF="90426" > PDF=90400 MemberID=26 </weight>
<weight id="1951" MUR="1.0" MUF="1.0" PDF="90427" > PDF=90400 MemberID=27 </weight>
<weight id="1952" MUR="1.0" MUF="1.0" PDF="90428" > PDF=90400 MemberID=28 </weight>
<weight id="1953" MUR="1.0" MUF="1.0" PDF="90429" > PDF=90400 MemberID=29 </weight>
<weight id="1954" MUR="1.0" MUF="1.0" PDF="90430" > PDF=90400 MemberID=30 </weight>
<weight id="1955" MUR="1.0" MUF="1.0" PDF="90431" > PDF=90400 MemberID=31 </weight>
<weight id="1956" MUR="1.0" MUF="1.0" PDF="90432" > PDF=90400 MemberID=32 </weight>
</weightgroup> # PDFSET -> PDFSET
<weightgroup name="PDF4LHC15_nnlo_30_pdfas" combine="symmhessian+as"> # 91400: PDF4LHC15_nnlo_30_pdfas. mem=0 ; alphas(MZ)=0.118 central value; mem=1-30 ; PDF symmetric eigenvectors; mem=31 ; alphas(MZ)=0.1165 central value; mem=32 ; alphas(MZ)=0.1195
<weight id="1957" MUR="1.0" MUF="1.0" PDF="91400" > PDF=91400 MemberID=0 </weight>
<weight id="1958" MUR="1.0" MUF="1.0" PDF="91401" > PDF=91400 MemberID=1 </weight>
<weight id="1959" MUR="1.0" MUF="1.0" PDF="91402" > PDF=91400 MemberID=2 </weight>
<weight id="1960" MUR="1.0" MUF="1.0" PDF="91403" > PDF=91400 MemberID=3 </weight>
<weight id="1961" MUR="1.0" MUF="1.0" PDF="91404" > PDF=91400 MemberID=4 </weight>
<weight id="1962" MUR="1.0" MUF="1.0" PDF="91405" > PDF=91400 MemberID=5 </weight>
<weight id="1963" MUR="1.0" MUF="1.0" PDF="91406" > PDF=91400 MemberID=6 </weight>
<weight id="1964" MUR="1.0" MUF="1.0" PDF="91407" > PDF=91400 MemberID=7 </weight>
<weight id="1965" MUR="1.0" MUF="1.0" PDF="91408" > PDF=91400 MemberID=8 </weight>
<weight id="1966" MUR="1.0" MUF="1.0" PDF="91409" > PDF=91400 MemberID=9 </weight>
<weight id="1967" MUR="1.0" MUF="1.0" PDF="91410" > PDF=91400 MemberID=10 </weight>
<weight id="1968" MUR="1.0" MUF="1.0" PDF="91411" > PDF=91400 MemberID=11 </weight>
<weight id="1969" MUR="1.0" MUF="1.0" PDF="91412" > PDF=91400 MemberID=12 </weight>
<weight id="1970" MUR="1.0" MUF="1.0" PDF="91413" > PDF=91400 MemberID=13 </weight>
<weight id="1971" MUR="1.0" MUF="1.0" PDF="91414" > PDF=91400 MemberID=14 </weight>
<weight id="1972" MUR="1.0" MUF="1.0" PDF="91415" > PDF=91400 MemberID=15 </weight>
<weight id="1973" MUR="1.0" MUF="1.0" PDF="91416" > PDF=91400 MemberID=16 </weight>
<weight id="1974" MUR="1.0" MUF="1.0" PDF="91417" > PDF=91400 MemberID=17 </weight>
<weight id="1975" MUR="1.0" MUF="1.0" PDF="91418" > PDF=91400 MemberID=18 </weight>
<weight id="1976" MUR="1.0" MUF="1.0" PDF="91419" > PDF=91400 MemberID=19 </weight>
<weight id="1977" MUR="1.0" MUF="1.0" PDF="91420" > PDF=91400 MemberID=20 </weight>
<weight id="1978" MUR="1.0" MUF="1.0" PDF="91421" > PDF=91400 MemberID=21 </weight>
<weight id="1979" MUR="1.0" MUF="1.0" PDF="91422" > PDF=91400 MemberID=22 </weight>
<weight id="1980" MUR="1.0" MUF="1.0" PDF="91423" > PDF=91400 MemberID=23 </weight>
<weight id="1981" MUR="1.0" MUF="1.0" PDF="91424" > PDF=91400 MemberID=24 </weight>
<weight id="1982" MUR="1.0" MUF="1.0" PDF="91425" > PDF=91400 MemberID=25 </weight>
<weight id="1983" MUR="1.0" MUF="1.0" PDF="91426" > PDF=91400 MemberID=26 </weight>
<weight id="1984" MUR="1.0" MUF="1.0" PDF="91427" > PDF=91400 MemberID=27 </weight>
<weight id="1985" MUR="1.0" MUF="1.0" PDF="91428" > PDF=91400 MemberID=28 </weight>
<weight id="1986" MUR="1.0" MUF="1.0" PDF="91429" > PDF=91400 MemberID=29 </weight>
<weight id="1987" MUR="1.0" MUF="1.0" PDF="91430" > PDF=91400 MemberID=30 </weight>
<weight id="1988" MUR="1.0" MUF="1.0" PDF="91431" > PDF=91400 MemberID=31 </weight>
<weight id="1989" MUR="1.0" MUF="1.0" PDF="91432" > PDF=91400 MemberID=32 </weight>
</weightgroup> # PDFSET -> PDFSET
<weightgroup name="HERAPDF20_NLO_EIG" combine="hessian"> # 61100: HERAPDF20 NLO (Q2min=3.5) fit and experimental uncertainty variations. The 28 error PDFs should be treated two by two as the up and down excursions along 14 eigenvectors, such that the symmetric error is calculated as the quadrature sum of [Sum i=1,14 of (var i+1 - var i)/2 ], or if asymmetric errors are desired according to Eqn 43 of Campbell, Huston and Stirling hep-ph/0611148. mem=0 ; central; mem=1-28 ; error eigenvectors.
<weight id="1990" MUR="1.0" MUF="1.0" PDF="61100" > PDF=61100 MemberID=0 </weight>
<weight id="1991" MUR="1.0" MUF="1.0" PDF="61101" > PDF=61100 MemberID=1 </weight>
<weight id="1992" MUR="1.0" MUF="1.0" PDF="61102" > PDF=61100 MemberID=2 </weight>
<weight id="1993" MUR="1.0" MUF="1.0" PDF="61103" > PDF=61100 MemberID=3 </weight>
<weight id="1994" MUR="1.0" MUF="1.0" PDF="61104" > PDF=61100 MemberID=4 </weight>
<weight id="1995" MUR="1.0" MUF="1.0" PDF="61105" > PDF=61100 MemberID=5 </weight>
<weight id="1996" MUR="1.0" MUF="1.0" PDF="61106" > PDF=61100 MemberID=6 </weight>
<weight id="1997" MUR="1.0" MUF="1.0" PDF="61107" > PDF=61100 MemberID=7 </weight>
<weight id="1998" MUR="1.0" MUF="1.0" PDF="61108" > PDF=61100 MemberID=8 </weight>
<weight id="1999" MUR="1.0" MUF="1.0" PDF="61109" > PDF=61100 MemberID=9 </weight>
<weight id="2000" MUR="1.0" MUF="1.0" PDF="61110" > PDF=61100 MemberID=10 </weight>
<weight id="2001" MUR="1.0" MUF="1.0" PDF="61111" > PDF=61100 MemberID=11 </weight>
<weight id="2002" MUR="1.0" MUF="1.0" PDF="61112" > PDF=61100 MemberID=12 </weight>
<weight id="2003" MUR="1.0" MUF="1.0" PDF="61113" > PDF=61100 MemberID=13 </weight>
<weight id="2004" MUR="1.0" MUF="1.0" PDF="61114" > PDF=61100 MemberID=14 </weight>
<weight id="2005" MUR="1.0" MUF="1.0" PDF="61115" > PDF=61100 MemberID=15 </weight>
<weight id="2006" MUR="1.0" MUF="1.0" PDF="61116" > PDF=61100 MemberID=16 </weight>
<weight id="2007" MUR="1.0" MUF="1.0" PDF="61117" > PDF=61100 MemberID=17 </weight>
<weight id="2008" MUR="1.0" MUF="1.0" PDF="61118" > PDF=61100 MemberID=18 </weight>
<weight id="2009" MUR="1.0" MUF="1.0" PDF="61119" > PDF=61100 MemberID=19 </weight>
<weight id="2010" MUR="1.0" MUF="1.0" PDF="61120" > PDF=61100 MemberID=20 </weight>
<weight id="2011" MUR="1.0" MUF="1.0" PDF="61121" > PDF=61100 MemberID=21 </weight>
<weight id="2012" MUR="1.0" MUF="1.0" PDF="61122" > PDF=61100 MemberID=22 </weight>
<weight id="2013" MUR="1.0" MUF="1.0" PDF="61123" > PDF=61100 MemberID=23 </weight>
<weight id="2014" MUR="1.0" MUF="1.0" PDF="61124" > PDF=61100 MemberID=24 </weight>
<weight id="2015" MUR="1.0" MUF="1.0" PDF="61125" > PDF=61100 MemberID=25 </weight>
<weight id="2016" MUR="1.0" MUF="1.0" PDF="61126" > PDF=61100 MemberID=26 </weight>
<weight id="2017" MUR="1.0" MUF="1.0" PDF="61127" > PDF=61100 MemberID=27 </weight>
<weight id="2018" MUR="1.0" MUF="1.0" PDF="61128" > PDF=61100 MemberID=28 </weight>
</weightgroup> # PDFSET -> PDFSET
<weightgroup name="HERAPDF20_NLO_VAR" combine="custom"> # 61130: HERAPDF20 NLO variations of fit parameters. Member 0 is the central fit. The 1-10 variations are considered as model errors and should be treated one by one, by taking the difference between the variation and the central value, and then adding in quadrature all positive (negative) differences to obtain the positive (negative) model error. Variations 11 to 13 are the maximal parametrisation variations; the largest positive (negative) difference between the variation and the central value is taken as the positive (negative) parametrisation error and added in quadrature to the model errors to form the parametrisation envelope. mem=0 ; central (fs=0.4,mb=4.5,mc=1.47,q20=1.9,q2min=3.5,a_s(MZ)=0.118); mem=1 ; fs=0.3;                mem=2 ; fs=0.5; mem=3 ; fs=hermesfs-03;        mem=4 ; fs=hermesfs-05 mem=5 ; q2cut=2.5;             mem=6 ; q2cut=5.; mem=7 ; mb=4.25;               mem=8 ; mb=4.75; mem=9 ; mc=1.41;               mem=10 ; mc=1.53; mem=11 ; par2(Q0 1.6, mc1.47); mem=12 ; par3 (Q0 2.2, mc1.53); mem=13 ; par4(Duv);
<weight id="2019" MUR="1.0" MUF="1.0" PDF="61130" > PDF=61130 MemberID=0 </weight>
<weight id="2020" MUR="1.0" MUF="1.0" PDF="61131" > PDF=61130 MemberID=1 </weight>
<weight id="2021" MUR="1.0" MUF="1.0" PDF="61132" > PDF=61130 MemberID=2 </weight>
<weight id="2022" MUR="1.0" MUF="1.0" PDF="61133" > PDF=61130 MemberID=3 </weight>
<weight id="2023" MUR="1.0" MUF="1.0" PDF="61134" > PDF=61130 MemberID=4 </weight>
<weight id="2024" MUR="1.0" MUF="1.0" PDF="61135" > PDF=61130 MemberID=5 </weight>
<weight id="2025" MUR="1.0" MUF="1.0" PDF="61136" > PDF=61130 MemberID=6 </weight>
<weight id="2026" MUR="1.0" MUF="1.0" PDF="61137" > PDF=61130 MemberID=7 </weight>
<weight id="2027" MUR="1.0" MUF="1.0" PDF="61138" > PDF=61130 MemberID=8 </weight>
<weight id="2028" MUR="1.0" MUF="1.0" PDF="61139" > PDF=61130 MemberID=9 </weight>
<weight id="2029" MUR="1.0" MUF="1.0" PDF="61140" > PDF=61130 MemberID=10 </weight>
<weight id="2030" MUR="1.0" MUF="1.0" PDF="61141" > PDF=61130 MemberID=11 </weight>
<weight id="2031" MUR="1.0" MUF="1.0" PDF="61142" > PDF=61130 MemberID=12 </weight>
<weight id="2032" MUR="1.0" MUF="1.0" PDF="61143" > PDF=61130 MemberID=13 </weight>
</weightgroup> # PDFSET -> PDFSET
<weightgroup name="HERAPDF20_NNLO_EIG" combine="hessian"> # 61200: HERAPDF20 NNLO (Q2min=3.5) fit and experimental uncertainty variations. The 28 error PDFs should be treated two by two as the up and down excursions along 14 eigenvectors, such that the symmetric error is calculated as the quadrature sum of [Sum i=1,14 of (var i+1 - var i)/2 ], or if asymmetric errors are desired according to Eqn 43 of Campbell, Huston and Stirling hep-ph/0611148. mem=0 ; central; mem=1-28 ; error eigenvectors.
<weight id="2033" MUR="1.0" MUF="1.0" PDF="61200" > PDF=61200 MemberID=0 </weight>
<weight id="2034" MUR="1.0" MUF="1.0" PDF="61201" > PDF=61200 MemberID=1 </weight>
<weight id="2035" MUR="1.0" MUF="1.0" PDF="61202" > PDF=61200 MemberID=2 </weight>
<weight id="2036" MUR="1.0" MUF="1.0" PDF="61203" > PDF=61200 MemberID=3 </weight>
<weight id="2037" MUR="1.0" MUF="1.0" PDF="61204" > PDF=61200 MemberID=4 </weight>
<weight id="2038" MUR="1.0" MUF="1.0" PDF="61205" > PDF=61200 MemberID=5 </weight>
<weight id="2039" MUR="1.0" MUF="1.0" PDF="61206" > PDF=61200 MemberID=6 </weight>
<weight id="2040" MUR="1.0" MUF="1.0" PDF="61207" > PDF=61200 MemberID=7 </weight>
<weight id="2041" MUR="1.0" MUF="1.0" PDF="61208" > PDF=61200 MemberID=8 </weight>
<weight id="2042" MUR="1.0" MUF="1.0" PDF="61209" > PDF=61200 MemberID=9 </weight>
<weight id="2043" MUR="1.0" MUF="1.0" PDF="61210" > PDF=61200 MemberID=10 </weight>
<weight id="2044" MUR="1.0" MUF="1.0" PDF="61211" > PDF=61200 MemberID=11 </weight>
<weight id="2045" MUR="1.0" MUF="1.0" PDF="61212" > PDF=61200 MemberID=12 </weight>
<weight id="2046" MUR="1.0" MUF="1.0" PDF="61213" > PDF=61200 MemberID=13 </weight>
<weight id="2047" MUR="1.0" MUF="1.0" PDF="61214" > PDF=61200 MemberID=14 </weight>
<weight id="2048" MUR="1.0" MUF="1.0" PDF="61215" > PDF=61200 MemberID=15 </weight>
<weight id="2049" MUR="1.0" MUF="1.0" PDF="61216" > PDF=61200 MemberID=16 </weight>
<weight id="2050" MUR="1.0" MUF="1.0" PDF="61217" > PDF=61200 MemberID=17 </weight>
<weight id="2051" MUR="1.0" MUF="1.0" PDF="61218" > PDF=61200 MemberID=18 </weight>
<weight id="2052" MUR="1.0" MUF="1.0" PDF="61219" > PDF=61200 MemberID=19 </weight>
<weight id="2053" MUR="1.0" MUF="1.0" PDF="61220" > PDF=61200 MemberID=20 </weight>
<weight id="2054" MUR="1.0" MUF="1.0" PDF="61221" > PDF=61200 MemberID=21 </weight>
<weight id="2055" MUR="1.0" MUF="1.0" PDF="61222" > PDF=61200 MemberID=22 </weight>
<weight id="2056" MUR="1.0" MUF="1.0" PDF="61223" > PDF=61200 MemberID=23 </weight>
<weight id="2057" MUR="1.0" MUF="1.0" PDF="61224" > PDF=61200 MemberID=24 </weight>
<weight id="2058" MUR="1.0" MUF="1.0" PDF="61225" > PDF=61200 MemberID=25 </weight>
<weight id="2059" MUR="1.0" MUF="1.0" PDF="61226" > PDF=61200 MemberID=26 </weight>
<weight id="2060" MUR="1.0" MUF="1.0" PDF="61227" > PDF=61200 MemberID=27 </weight>
<weight id="2061" MUR="1.0" MUF="1.0" PDF="61228" > PDF=61200 MemberID=28 </weight>
</weightgroup> # PDFSET -> PDFSET
<weightgroup name="HERAPDF20_NNLO_VAR" combine="custom"> # 61230: HERAPDF20 NNLO variations of fit parameters. Member 0 is the central fit. The 1-10 variations are considered as model errors and should be treated one by one, by taking the difference between the variation and the central value, and then adding in quadrature all positive (negative) differences to obtain the positive (negative) model error. Variations 11 to 13 are the maximal parametrisation variations; the largest positive (negative) difference between the variation and the central value is taken as the positive (negative) parametrisation error and added in quadrature to the model errors to form the parametrisation envelope. mem=0 ; central (fs=0.4,mb=4.5,mc=1.43,q20=1.9,q2min=3.5,a_s(MZ)=0.118); mem=1 ; fs=0.3;                mem=2 ; fs=0.5; mem=3 ; fs=hermesfs-03;        mem=4 ; fs=hermesfs-05 mem=5 ; q2cut=2.5;             mem=6 ; q2cut=5.; mem=7 ; mb=4.25;               mem=8 ; mb=4.75; mem=9 ; mc=1.37;               mem=10 ; mc=1.49; mem=11 ; par2(Q0 1.6, mc1.43); mem=12 ; par3 (Q0 2.2, mc1.49); mem=13 ; par4(Duv);
<weight id="2062" MUR="1.0" MUF="1.0" PDF="61230" > PDF=61230 MemberID=0 </weight>
<weight id="2063" MUR="1.0" MUF="1.0" PDF="61231" > PDF=61230 MemberID=1 </weight>
<weight id="2064" MUR="1.0" MUF="1.0" PDF="61232" > PDF=61230 MemberID=2 </weight>
<weight id="2065" MUR="1.0" MUF="1.0" PDF="61233" > PDF=61230 MemberID=3 </weight>
<weight id="2066" MUR="1.0" MUF="1.0" PDF="61234" > PDF=61230 MemberID=4 </weight>
<weight id="2067" MUR="1.0" MUF="1.0" PDF="61235" > PDF=61230 MemberID=5 </weight>
<weight id="2068" MUR="1.0" MUF="1.0" PDF="61236" > PDF=61230 MemberID=6 </weight>
<weight id="2069" MUR="1.0" MUF="1.0" PDF="61237" > PDF=61230 MemberID=7 </weight>
<weight id="2070" MUR="1.0" MUF="1.0" PDF="61238" > PDF=61230 MemberID=8 </weight>
<weight id="2071" MUR="1.0" MUF="1.0" PDF="61239" > PDF=61230 MemberID=9 </weight>
<weight id="2072" MUR="1.0" MUF="1.0" PDF="61240" > PDF=61230 MemberID=10 </weight>
<weight id="2073" MUR="1.0" MUF="1.0" PDF="61241" > PDF=61230 MemberID=11 </weight>
<weight id="2074" MUR="1.0" MUF="1.0" PDF="61242" > PDF=61230 MemberID=12 </weight>
<weight id="2075" MUR="1.0" MUF="1.0" PDF="61243" > PDF=61230 MemberID=13 </weight>
</weightgroup> # PDFSET -> PDFSET
<weightgroup name="CT14qed_inc_proton" combine="unknown"> # 13400: CT14qed_inc, NLO QCD + LO QED (inclusive photon) sets for the proton, based on CT14nlo with the initial photon PDF defined by the sum of the inelastic photon PDF and the elastic photon PDF, obtained from the equivalent photon approximation, at the initial scale Q0. The initial inelastic photon PDF is defined by the radiative ansatz and parametrized by its initial inelastic momentum fraction. (m=0 ; p=0.00%, mem=1 ; p=0.01%, mem=2 ; p=0.02%, etc., up to mem=30 ; p=0.30%). A limit of p=0.14% was found at the 90% CL in the Reference
<weight id="2076" MUR="1.0" MUF="1.0" PDF="13400" > PDF=13400 MemberID=0 </weight>
<weight id="2077" MUR="1.0" MUF="1.0" PDF="13401" > PDF=13400 MemberID=1 </weight>
<weight id="2078" MUR="1.0" MUF="1.0" PDF="13402" > PDF=13400 MemberID=2 </weight>
<weight id="2079" MUR="1.0" MUF="1.0" PDF="13403" > PDF=13400 MemberID=3 </weight>
<weight id="2080" MUR="1.0" MUF="1.0" PDF="13404" > PDF=13400 MemberID=4 </weight>
<weight id="2081" MUR="1.0" MUF="1.0" PDF="13405" > PDF=13400 MemberID=5 </weight>
<weight id="2082" MUR="1.0" MUF="1.0" PDF="13406" > PDF=13400 MemberID=6 </weight>
<weight id="2083" MUR="1.0" MUF="1.0" PDF="13407" > PDF=13400 MemberID=7 </weight>
<weight id="2084" MUR="1.0" MUF="1.0" PDF="13408" > PDF=13400 MemberID=8 </weight>
<weight id="2085" MUR="1.0" MUF="1.0" PDF="13409" > PDF=13400 MemberID=9 </weight>
<weight id="2086" MUR="1.0" MUF="1.0" PDF="13410" > PDF=13400 MemberID=10 </weight>
<weight id="2087" MUR="1.0" MUF="1.0" PDF="13411" > PDF=13400 MemberID=11 </weight>
<weight id="2088" MUR="1.0" MUF="1.0" PDF="13412" > PDF=13400 MemberID=12 </weight>
<weight id="2089" MUR="1.0" MUF="1.0" PDF="13413" > PDF=13400 MemberID=13 </weight>
<weight id="2090" MUR="1.0" MUF="1.0" PDF="13414" > PDF=13400 MemberID=14 </weight>
<weight id="2091" MUR="1.0" MUF="1.0" PDF="13415" > PDF=13400 MemberID=15 </weight>
<weight id="2092" MUR="1.0" MUF="1.0" PDF="13416" > PDF=13400 MemberID=16 </weight>
<weight id="2093" MUR="1.0" MUF="1.0" PDF="13417" > PDF=13400 MemberID=17 </weight>
<weight id="2094" MUR="1.0" MUF="1.0" PDF="13418" > PDF=13400 MemberID=18 </weight>
<weight id="2095" MUR="1.0" MUF="1.0" PDF="13419" > PDF=13400 MemberID=19 </weight>
<weight id="2096" MUR="1.0" MUF="1.0" PDF="13420" > PDF=13400 MemberID=20 </weight>
<weight id="2097" MUR="1.0" MUF="1.0" PDF="13421" > PDF=13400 MemberID=21 </weight>
<weight id="2098" MUR="1.0" MUF="1.0" PDF="13422" > PDF=13400 MemberID=22 </weight>
<weight id="2099" MUR="1.0" MUF="1.0" PDF="13423" > PDF=13400 MemberID=23 </weight>
<weight id="2100" MUR="1.0" MUF="1.0" PDF="13424" > PDF=13400 MemberID=24 </weight>
<weight id="2101" MUR="1.0" MUF="1.0" PDF="13425" > PDF=13400 MemberID=25 </weight>
<weight id="2102" MUR="1.0" MUF="1.0" PDF="13426" > PDF=13400 MemberID=26 </weight>
<weight id="2103" MUR="1.0" MUF="1.0" PDF="13427" > PDF=13400 MemberID=27 </weight>
<weight id="2104" MUR="1.0" MUF="1.0" PDF="13428" > PDF=13400 MemberID=28 </weight>
<weight id="2105" MUR="1.0" MUF="1.0" PDF="13429" > PDF=13400 MemberID=29 </weight>
<weight id="2106" MUR="1.0" MUF="1.0" PDF="13430" > PDF=13400 MemberID=30 </weight>
</weightgroup> # PDFSET -> PDFSET
<weightgroup name="LUXqed17_plus_PDF4LHC15_nnlo_100" combine="symmhessian"> # 82200: LUXqed17_plus_PDF4LHC15_nnlo_100: this set combines QCD partons from PDF4LHC15_nnlo_100 with the LUXqed photon determination.
PDF4LHC15_nnlo_100 description:
  PDF4LHC15_nnlo_100. mem=0 ; alphas(MZ)=0.118 central value; mem=1-100
  ; PDF symmetric eigenvectors
LUXqed description:
  Determination of the low Q^2 photon component from A1, CLAS and Hermes GD11-P
  fits. High-Q^2 part from the input QCD PDF with standard coefficient functions.
  Photon generated at scale 100.0 GeV, other partons matched at scale
  10.0 GeV, photon momentum absorbed by adjusting g(x) -.gt. g(x) -
  0.00699 * x^{0.000} g(x) at scale 10.0 GeV
Members:
  0 is central
  1-100 map to original PDF members
  101 replacement of CLAS resonance fit with Christy-Bosted fit
  102 rescale-R-0.5
  103 rescale R in high-Q^2 region with a higher-twist component
  104 use the A1 elastic fit result without the two-photon exchange corrections
  105 use the lower edge of the elastic fit error band
  106 lower the transition from Hermes GD11-P to the PDF-based F2,FL determinations to 5 GeV^2
  107 extremum of absolute variation obtained by adding the NNLO QCD contribution for each of three scale choices (mu_M/mu = 0.5, 1.0, 2.0)
Versioning info:
  DataVersion, below, is (10000 * PDF4LHC15_nnlo_100.DataVersion + 1 * LUXqed_version)
LUXqed version history for this PDF:
  This version corresponds to the long LUXqed17 paper.
<weight id="2107" MUR="1.0" MUF="1.0" PDF="82200" > PDF=82200 MemberID=0 </weight>
<weight id="2108" MUR="1.0" MUF="1.0" PDF="82201" > PDF=82200 MemberID=1 </weight>
<weight id="2109" MUR="1.0" MUF="1.0" PDF="82202" > PDF=82200 MemberID=2 </weight>
<weight id="2110" MUR="1.0" MUF="1.0" PDF="82203" > PDF=82200 MemberID=3 </weight>
<weight id="2111" MUR="1.0" MUF="1.0" PDF="82204" > PDF=82200 MemberID=4 </weight>
<weight id="2112" MUR="1.0" MUF="1.0" PDF="82205" > PDF=82200 MemberID=5 </weight>
<weight id="2113" MUR="1.0" MUF="1.0" PDF="82206" > PDF=82200 MemberID=6 </weight>
<weight id="2114" MUR="1.0" MUF="1.0" PDF="82207" > PDF=82200 MemberID=7 </weight>
<weight id="2115" MUR="1.0" MUF="1.0" PDF="82208" > PDF=82200 MemberID=8 </weight>
<weight id="2116" MUR="1.0" MUF="1.0" PDF="82209" > PDF=82200 MemberID=9 </weight>
<weight id="2117" MUR="1.0" MUF="1.0" PDF="82210" > PDF=82200 MemberID=10 </weight>
<weight id="2118" MUR="1.0" MUF="1.0" PDF="82211" > PDF=82200 MemberID=11 </weight>
<weight id="2119" MUR="1.0" MUF="1.0" PDF="82212" > PDF=82200 MemberID=12 </weight>
<weight id="2120" MUR="1.0" MUF="1.0" PDF="82213" > PDF=82200 MemberID=13 </weight>
<weight id="2121" MUR="1.0" MUF="1.0" PDF="82214" > PDF=82200 MemberID=14 </weight>
<weight id="2122" MUR="1.0" MUF="1.0" PDF="82215" > PDF=82200 MemberID=15 </weight>
<weight id="2123" MUR="1.0" MUF="1.0" PDF="82216" > PDF=82200 MemberID=16 </weight>
<weight id="2124" MUR="1.0" MUF="1.0" PDF="82217" > PDF=82200 MemberID=17 </weight>
<weight id="2125" MUR="1.0" MUF="1.0" PDF="82218" > PDF=82200 MemberID=18 </weight>
<weight id="2126" MUR="1.0" MUF="1.0" PDF="82219" > PDF=82200 MemberID=19 </weight>
<weight id="2127" MUR="1.0" MUF="1.0" PDF="82220" > PDF=82200 MemberID=20 </weight>
<weight id="2128" MUR="1.0" MUF="1.0" PDF="82221" > PDF=82200 MemberID=21 </weight>
<weight id="2129" MUR="1.0" MUF="1.0" PDF="82222" > PDF=82200 MemberID=22 </weight>
<weight id="2130" MUR="1.0" MUF="1.0" PDF="82223" > PDF=82200 MemberID=23 </weight>
<weight id="2131" MUR="1.0" MUF="1.0" PDF="82224" > PDF=82200 MemberID=24 </weight>
<weight id="2132" MUR="1.0" MUF="1.0" PDF="82225" > PDF=82200 MemberID=25 </weight>
<weight id="2133" MUR="1.0" MUF="1.0" PDF="82226" > PDF=82200 MemberID=26 </weight>
<weight id="2134" MUR="1.0" MUF="1.0" PDF="82227" > PDF=82200 MemberID=27 </weight>
<weight id="2135" MUR="1.0" MUF="1.0" PDF="82228" > PDF=82200 MemberID=28 </weight>
<weight id="2136" MUR="1.0" MUF="1.0" PDF="82229" > PDF=82200 MemberID=29 </weight>
<weight id="2137" MUR="1.0" MUF="1.0" PDF="82230" > PDF=82200 MemberID=30 </weight>
<weight id="2138" MUR="1.0" MUF="1.0" PDF="82231" > PDF=82200 MemberID=31 </weight>
<weight id="2139" MUR="1.0" MUF="1.0" PDF="82232" > PDF=82200 MemberID=32 </weight>
<weight id="2140" MUR="1.0" MUF="1.0" PDF="82233" > PDF=82200 MemberID=33 </weight>
<weight id="2141" MUR="1.0" MUF="1.0" PDF="82234" > PDF=82200 MemberID=34 </weight>
<weight id="2142" MUR="1.0" MUF="1.0" PDF="82235" > PDF=82200 MemberID=35 </weight>
<weight id="2143" MUR="1.0" MUF="1.0" PDF="82236" > PDF=82200 MemberID=36 </weight>
<weight id="2144" MUR="1.0" MUF="1.0" PDF="82237" > PDF=82200 MemberID=37 </weight>
<weight id="2145" MUR="1.0" MUF="1.0" PDF="82238" > PDF=82200 MemberID=38 </weight>
<weight id="2146" MUR="1.0" MUF="1.0" PDF="82239" > PDF=82200 MemberID=39 </weight>
<weight id="2147" MUR="1.0" MUF="1.0" PDF="82240" > PDF=82200 MemberID=40 </weight>
<weight id="2148" MUR="1.0" MUF="1.0" PDF="82241" > PDF=82200 MemberID=41 </weight>
<weight id="2149" MUR="1.0" MUF="1.0" PDF="82242" > PDF=82200 MemberID=42 </weight>
<weight id="2150" MUR="1.0" MUF="1.0" PDF="82243" > PDF=82200 MemberID=43 </weight>
<weight id="2151" MUR="1.0" MUF="1.0" PDF="82244" > PDF=82200 MemberID=44 </weight>
<weight id="2152" MUR="1.0" MUF="1.0" PDF="82245" > PDF=82200 MemberID=45 </weight>
<weight id="2153" MUR="1.0" MUF="1.0" PDF="82246" > PDF=82200 MemberID=46 </weight>
<weight id="2154" MUR="1.0" MUF="1.0" PDF="82247" > PDF=82200 MemberID=47 </weight>
<weight id="2155" MUR="1.0" MUF="1.0" PDF="82248" > PDF=82200 MemberID=48 </weight>
<weight id="2156" MUR="1.0" MUF="1.0" PDF="82249" > PDF=82200 MemberID=49 </weight>
<weight id="2157" MUR="1.0" MUF="1.0" PDF="82250" > PDF=82200 MemberID=50 </weight>
<weight id="2158" MUR="1.0" MUF="1.0" PDF="82251" > PDF=82200 MemberID=51 </weight>
<weight id="2159" MUR="1.0" MUF="1.0" PDF="82252" > PDF=82200 MemberID=52 </weight>
<weight id="2160" MUR="1.0" MUF="1.0" PDF="82253" > PDF=82200 MemberID=53 </weight>
<weight id="2161" MUR="1.0" MUF="1.0" PDF="82254" > PDF=82200 MemberID=54 </weight>
<weight id="2162" MUR="1.0" MUF="1.0" PDF="82255" > PDF=82200 MemberID=55 </weight>
<weight id="2163" MUR="1.0" MUF="1.0" PDF="82256" > PDF=82200 MemberID=56 </weight>
<weight id="2164" MUR="1.0" MUF="1.0" PDF="82257" > PDF=82200 MemberID=57 </weight>
<weight id="2165" MUR="1.0" MUF="1.0" PDF="82258" > PDF=82200 MemberID=58 </weight>
<weight id="2166" MUR="1.0" MUF="1.0" PDF="82259" > PDF=82200 MemberID=59 </weight>
<weight id="2167" MUR="1.0" MUF="1.0" PDF="82260" > PDF=82200 MemberID=60 </weight>
<weight id="2168" MUR="1.0" MUF="1.0" PDF="82261" > PDF=82200 MemberID=61 </weight>
<weight id="2169" MUR="1.0" MUF="1.0" PDF="82262" > PDF=82200 MemberID=62 </weight>
<weight id="2170" MUR="1.0" MUF="1.0" PDF="82263" > PDF=82200 MemberID=63 </weight>
<weight id="2171" MUR="1.0" MUF="1.0" PDF="82264" > PDF=82200 MemberID=64 </weight>
<weight id="2172" MUR="1.0" MUF="1.0" PDF="82265" > PDF=82200 MemberID=65 </weight>
<weight id="2173" MUR="1.0" MUF="1.0" PDF="82266" > PDF=82200 MemberID=66 </weight>
<weight id="2174" MUR="1.0" MUF="1.0" PDF="82267" > PDF=82200 MemberID=67 </weight>
<weight id="2175" MUR="1.0" MUF="1.0" PDF="82268" > PDF=82200 MemberID=68 </weight>
<weight id="2176" MUR="1.0" MUF="1.0" PDF="82269" > PDF=82200 MemberID=69 </weight>
<weight id="2177" MUR="1.0" MUF="1.0" PDF="82270" > PDF=82200 MemberID=70 </weight>
<weight id="2178" MUR="1.0" MUF="1.0" PDF="82271" > PDF=82200 MemberID=71 </weight>
<weight id="2179" MUR="1.0" MUF="1.0" PDF="82272" > PDF=82200 MemberID=72 </weight>
<weight id="2180" MUR="1.0" MUF="1.0" PDF="82273" > PDF=82200 MemberID=73 </weight>
<weight id="2181" MUR="1.0" MUF="1.0" PDF="82274" > PDF=82200 MemberID=74 </weight>
<weight id="2182" MUR="1.0" MUF="1.0" PDF="82275" > PDF=82200 MemberID=75 </weight>
<weight id="2183" MUR="1.0" MUF="1.0" PDF="82276" > PDF=82200 MemberID=76 </weight>
<weight id="2184" MUR="1.0" MUF="1.0" PDF="82277" > PDF=82200 MemberID=77 </weight>
<weight id="2185" MUR="1.0" MUF="1.0" PDF="82278" > PDF=82200 MemberID=78 </weight>
<weight id="2186" MUR="1.0" MUF="1.0" PDF="82279" > PDF=82200 MemberID=79 </weight>
<weight id="2187" MUR="1.0" MUF="1.0" PDF="82280" > PDF=82200 MemberID=80 </weight>
<weight id="2188" MUR="1.0" MUF="1.0" PDF="82281" > PDF=82200 MemberID=81 </weight>
<weight id="2189" MUR="1.0" MUF="1.0" PDF="82282" > PDF=82200 MemberID=82 </weight>
<weight id="2190" MUR="1.0" MUF="1.0" PDF="82283" > PDF=82200 MemberID=83 </weight>
<weight id="2191" MUR="1.0" MUF="1.0" PDF="82284" > PDF=82200 MemberID=84 </weight>
<weight id="2192" MUR="1.0" MUF="1.0" PDF="82285" > PDF=82200 MemberID=85 </weight>
<weight id="2193" MUR="1.0" MUF="1.0" PDF="82286" > PDF=82200 MemberID=86 </weight>
<weight id="2194" MUR="1.0" MUF="1.0" PDF="82287" > PDF=82200 MemberID=87 </weight>
<weight id="2195" MUR="1.0" MUF="1.0" PDF="82288" > PDF=82200 MemberID=88 </weight>
<weight id="2196" MUR="1.0" MUF="1.0" PDF="82289" > PDF=82200 MemberID=89 </weight>
<weight id="2197" MUR="1.0" MUF="1.0" PDF="82290" > PDF=82200 MemberID=90 </weight>
<weight id="2198" MUR="1.0" MUF="1.0" PDF="82291" > PDF=82200 MemberID=91 </weight>
<weight id="2199" MUR="1.0" MUF="1.0" PDF="82292" > PDF=82200 MemberID=92 </weight>
<weight id="2200" MUR="1.0" MUF="1.0" PDF="82293" > PDF=82200 MemberID=93 </weight>
<weight id="2201" MUR="1.0" MUF="1.0" PDF="82294" > PDF=82200 MemberID=94 </weight>
<weight id="2202" MUR="1.0" MUF="1.0" PDF="82295" > PDF=82200 MemberID=95 </weight>
<weight id="2203" MUR="1.0" MUF="1.0" PDF="82296" > PDF=82200 MemberID=96 </weight>
<weight id="2204" MUR="1.0" MUF="1.0" PDF="82297" > PDF=82200 MemberID=97 </weight>
<weight id="2205" MUR="1.0" MUF="1.0" PDF="82298" > PDF=82200 MemberID=98 </weight>
<weight id="2206" MUR="1.0" MUF="1.0" PDF="82299" > PDF=82200 MemberID=99 </weight>
<weight id="2207" MUR="1.0" MUF="1.0" PDF="82300" > PDF=82200 MemberID=100 </weight>
<weight id="2208" MUR="1.0" MUF="1.0" PDF="82301" > PDF=82200 MemberID=101 </weight>
<weight id="2209" MUR="1.0" MUF="1.0" PDF="82302" > PDF=82200 MemberID=102 </weight>
<weight id="2210" MUR="1.0" MUF="1.0" PDF="82303" > PDF=82200 MemberID=103 </weight>
<weight id="2211" MUR="1.0" MUF="1.0" PDF="82304" > PDF=82200 MemberID=104 </weight>
<weight id="2212" MUR="1.0" MUF="1.0" PDF="82305" > PDF=82200 MemberID=105 </weight>
<weight id="2213" MUR="1.0" MUF="1.0" PDF="82306" > PDF=82200 MemberID=106 </weight>
<weight id="2214" MUR="1.0" MUF="1.0" PDF="82307" > PDF=82200 MemberID=107 </weight>
</weightgroup> # PDFSET -> PDFSET
<weightgroup name="NNPDF30_nlo_nf_5_pdfas" combine="replicas+as"> # 292200: NNPDF3.0 NLO global fit; mem=0 to mem=100 with alphas(MZ)=0.118, mem=0 ; average on replicas 1-100; mem=1-100 ; PDF replicas with  alphas(MZ)=0.118; mem=101 ; central value for alphas=0.117; mem=102 ; central value for alphas=0.119 
<weight id="2215" MUR="1.0" MUF="1.0" PDF="292200" > PDF=292200 MemberID=0 </weight>
<weight id="2216" MUR="1.0" MUF="1.0" PDF="292201" > PDF=292200 MemberID=1 </weight>
<weight id="2217" MUR="1.0" MUF="1.0" PDF="292202" > PDF=292200 MemberID=2 </weight>
<weight id="2218" MUR="1.0" MUF="1.0" PDF="292203" > PDF=292200 MemberID=3 </weight>
<weight id="2219" MUR="1.0" MUF="1.0" PDF="292204" > PDF=292200 MemberID=4 </weight>
<weight id="2220" MUR="1.0" MUF="1.0" PDF="292205" > PDF=292200 MemberID=5 </weight>
<weight id="2221" MUR="1.0" MUF="1.0" PDF="292206" > PDF=292200 MemberID=6 </weight>
<weight id="2222" MUR="1.0" MUF="1.0" PDF="292207" > PDF=292200 MemberID=7 </weight>
<weight id="2223" MUR="1.0" MUF="1.0" PDF="292208" > PDF=292200 MemberID=8 </weight>
<weight id="2224" MUR="1.0" MUF="1.0" PDF="292209" > PDF=292200 MemberID=9 </weight>
<weight id="2225" MUR="1.0" MUF="1.0" PDF="292210" > PDF=292200 MemberID=10 </weight>
<weight id="2226" MUR="1.0" MUF="1.0" PDF="292211" > PDF=292200 MemberID=11 </weight>
<weight id="2227" MUR="1.0" MUF="1.0" PDF="292212" > PDF=292200 MemberID=12 </weight>
<weight id="2228" MUR="1.0" MUF="1.0" PDF="292213" > PDF=292200 MemberID=13 </weight>
<weight id="2229" MUR="1.0" MUF="1.0" PDF="292214" > PDF=292200 MemberID=14 </weight>
<weight id="2230" MUR="1.0" MUF="1.0" PDF="292215" > PDF=292200 MemberID=15 </weight>
<weight id="2231" MUR="1.0" MUF="1.0" PDF="292216" > PDF=292200 MemberID=16 </weight>
<weight id="2232" MUR="1.0" MUF="1.0" PDF="292217" > PDF=292200 MemberID=17 </weight>
<weight id="2233" MUR="1.0" MUF="1.0" PDF="292218" > PDF=292200 MemberID=18 </weight>
<weight id="2234" MUR="1.0" MUF="1.0" PDF="292219" > PDF=292200 MemberID=19 </weight>
<weight id="2235" MUR="1.0" MUF="1.0" PDF="292220" > PDF=292200 MemberID=20 </weight>
<weight id="2236" MUR="1.0" MUF="1.0" PDF="292221" > PDF=292200 MemberID=21 </weight>
<weight id="2237" MUR="1.0" MUF="1.0" PDF="292222" > PDF=292200 MemberID=22 </weight>
<weight id="2238" MUR="1.0" MUF="1.0" PDF="292223" > PDF=292200 MemberID=23 </weight>
<weight id="2239" MUR="1.0" MUF="1.0" PDF="292224" > PDF=292200 MemberID=24 </weight>
<weight id="2240" MUR="1.0" MUF="1.0" PDF="292225" > PDF=292200 MemberID=25 </weight>
<weight id="2241" MUR="1.0" MUF="1.0" PDF="292226" > PDF=292200 MemberID=26 </weight>
<weight id="2242" MUR="1.0" MUF="1.0" PDF="292227" > PDF=292200 MemberID=27 </weight>
<weight id="2243" MUR="1.0" MUF="1.0" PDF="292228" > PDF=292200 MemberID=28 </weight>
<weight id="2244" MUR="1.0" MUF="1.0" PDF="292229" > PDF=292200 MemberID=29 </weight>
<weight id="2245" MUR="1.0" MUF="1.0" PDF="292230" > PDF=292200 MemberID=30 </weight>
<weight id="2246" MUR="1.0" MUF="1.0" PDF="292231" > PDF=292200 MemberID=31 </weight>
<weight id="2247" MUR="1.0" MUF="1.0" PDF="292232" > PDF=292200 MemberID=32 </weight>
<weight id="2248" MUR="1.0" MUF="1.0" PDF="292233" > PDF=292200 MemberID=33 </weight>
<weight id="2249" MUR="1.0" MUF="1.0" PDF="292234" > PDF=292200 MemberID=34 </weight>
<weight id="2250" MUR="1.0" MUF="1.0" PDF="292235" > PDF=292200 MemberID=35 </weight>
<weight id="2251" MUR="1.0" MUF="1.0" PDF="292236" > PDF=292200 MemberID=36 </weight>
<weight id="2252" MUR="1.0" MUF="1.0" PDF="292237" > PDF=292200 MemberID=37 </weight>
<weight id="2253" MUR="1.0" MUF="1.0" PDF="292238" > PDF=292200 MemberID=38 </weight>
<weight id="2254" MUR="1.0" MUF="1.0" PDF="292239" > PDF=292200 MemberID=39 </weight>
<weight id="2255" MUR="1.0" MUF="1.0" PDF="292240" > PDF=292200 MemberID=40 </weight>
<weight id="2256" MUR="1.0" MUF="1.0" PDF="292241" > PDF=292200 MemberID=41 </weight>
<weight id="2257" MUR="1.0" MUF="1.0" PDF="292242" > PDF=292200 MemberID=42 </weight>
<weight id="2258" MUR="1.0" MUF="1.0" PDF="292243" > PDF=292200 MemberID=43 </weight>
<weight id="2259" MUR="1.0" MUF="1.0" PDF="292244" > PDF=292200 MemberID=44 </weight>
<weight id="2260" MUR="1.0" MUF="1.0" PDF="292245" > PDF=292200 MemberID=45 </weight>
<weight id="2261" MUR="1.0" MUF="1.0" PDF="292246" > PDF=292200 MemberID=46 </weight>
<weight id="2262" MUR="1.0" MUF="1.0" PDF="292247" > PDF=292200 MemberID=47 </weight>
<weight id="2263" MUR="1.0" MUF="1.0" PDF="292248" > PDF=292200 MemberID=48 </weight>
<weight id="2264" MUR="1.0" MUF="1.0" PDF="292249" > PDF=292200 MemberID=49 </weight>
<weight id="2265" MUR="1.0" MUF="1.0" PDF="292250" > PDF=292200 MemberID=50 </weight>
<weight id="2266" MUR="1.0" MUF="1.0" PDF="292251" > PDF=292200 MemberID=51 </weight>
<weight id="2267" MUR="1.0" MUF="1.0" PDF="292252" > PDF=292200 MemberID=52 </weight>
<weight id="2268" MUR="1.0" MUF="1.0" PDF="292253" > PDF=292200 MemberID=53 </weight>
<weight id="2269" MUR="1.0" MUF="1.0" PDF="292254" > PDF=292200 MemberID=54 </weight>
<weight id="2270" MUR="1.0" MUF="1.0" PDF="292255" > PDF=292200 MemberID=55 </weight>
<weight id="2271" MUR="1.0" MUF="1.0" PDF="292256" > PDF=292200 MemberID=56 </weight>
<weight id="2272" MUR="1.0" MUF="1.0" PDF="292257" > PDF=292200 MemberID=57 </weight>
<weight id="2273" MUR="1.0" MUF="1.0" PDF="292258" > PDF=292200 MemberID=58 </weight>
<weight id="2274" MUR="1.0" MUF="1.0" PDF="292259" > PDF=292200 MemberID=59 </weight>
<weight id="2275" MUR="1.0" MUF="1.0" PDF="292260" > PDF=292200 MemberID=60 </weight>
<weight id="2276" MUR="1.0" MUF="1.0" PDF="292261" > PDF=292200 MemberID=61 </weight>
<weight id="2277" MUR="1.0" MUF="1.0" PDF="292262" > PDF=292200 MemberID=62 </weight>
<weight id="2278" MUR="1.0" MUF="1.0" PDF="292263" > PDF=292200 MemberID=63 </weight>
<weight id="2279" MUR="1.0" MUF="1.0" PDF="292264" > PDF=292200 MemberID=64 </weight>
<weight id="2280" MUR="1.0" MUF="1.0" PDF="292265" > PDF=292200 MemberID=65 </weight>
<weight id="2281" MUR="1.0" MUF="1.0" PDF="292266" > PDF=292200 MemberID=66 </weight>
<weight id="2282" MUR="1.0" MUF="1.0" PDF="292267" > PDF=292200 MemberID=67 </weight>
<weight id="2283" MUR="1.0" MUF="1.0" PDF="292268" > PDF=292200 MemberID=68 </weight>
<weight id="2284" MUR="1.0" MUF="1.0" PDF="292269" > PDF=292200 MemberID=69 </weight>
<weight id="2285" MUR="1.0" MUF="1.0" PDF="292270" > PDF=292200 MemberID=70 </weight>
<weight id="2286" MUR="1.0" MUF="1.0" PDF="292271" > PDF=292200 MemberID=71 </weight>
<weight id="2287" MUR="1.0" MUF="1.0" PDF="292272" > PDF=292200 MemberID=72 </weight>
<weight id="2288" MUR="1.0" MUF="1.0" PDF="292273" > PDF=292200 MemberID=73 </weight>
<weight id="2289" MUR="1.0" MUF="1.0" PDF="292274" > PDF=292200 MemberID=74 </weight>
<weight id="2290" MUR="1.0" MUF="1.0" PDF="292275" > PDF=292200 MemberID=75 </weight>
<weight id="2291" MUR="1.0" MUF="1.0" PDF="292276" > PDF=292200 MemberID=76 </weight>
<weight id="2292" MUR="1.0" MUF="1.0" PDF="292277" > PDF=292200 MemberID=77 </weight>
<weight id="2293" MUR="1.0" MUF="1.0" PDF="292278" > PDF=292200 MemberID=78 </weight>
<weight id="2294" MUR="1.0" MUF="1.0" PDF="292279" > PDF=292200 MemberID=79 </weight>
<weight id="2295" MUR="1.0" MUF="1.0" PDF="292280" > PDF=292200 MemberID=80 </weight>
<weight id="2296" MUR="1.0" MUF="1.0" PDF="292281" > PDF=292200 MemberID=81 </weight>
<weight id="2297" MUR="1.0" MUF="1.0" PDF="292282" > PDF=292200 MemberID=82 </weight>
<weight id="2298" MUR="1.0" MUF="1.0" PDF="292283" > PDF=292200 MemberID=83 </weight>
<weight id="2299" MUR="1.0" MUF="1.0" PDF="292284" > PDF=292200 MemberID=84 </weight>
<weight id="2300" MUR="1.0" MUF="1.0" PDF="292285" > PDF=292200 MemberID=85 </weight>
<weight id="2301" MUR="1.0" MUF="1.0" PDF="292286" > PDF=292200 MemberID=86 </weight>
<weight id="2302" MUR="1.0" MUF="1.0" PDF="292287" > PDF=292200 MemberID=87 </weight>
<weight id="2303" MUR="1.0" MUF="1.0" PDF="292288" > PDF=292200 MemberID=88 </weight>
<weight id="2304" MUR="1.0" MUF="1.0" PDF="292289" > PDF=292200 MemberID=89 </weight>
<weight id="2305" MUR="1.0" MUF="1.0" PDF="292290" > PDF=292200 MemberID=90 </weight>
<weight id="2306" MUR="1.0" MUF="1.0" PDF="292291" > PDF=292200 MemberID=91 </weight>
<weight id="2307" MUR="1.0" MUF="1.0" PDF="292292" > PDF=292200 MemberID=92 </weight>
<weight id="2308" MUR="1.0" MUF="1.0" PDF="292293" > PDF=292200 MemberID=93 </weight>
<weight id="2309" MUR="1.0" MUF="1.0" PDF="292294" > PDF=292200 MemberID=94 </weight>
<weight id="2310" MUR="1.0" MUF="1.0" PDF="292295" > PDF=292200 MemberID=95 </weight>
<weight id="2311" MUR="1.0" MUF="1.0" PDF="292296" > PDF=292200 MemberID=96 </weight>
<weight id="2312" MUR="1.0" MUF="1.0" PDF="292297" > PDF=292200 MemberID=97 </weight>
<weight id="2313" MUR="1.0" MUF="1.0" PDF="292298" > PDF=292200 MemberID=98 </weight>
<weight id="2314" MUR="1.0" MUF="1.0" PDF="292299" > PDF=292200 MemberID=99 </weight>
<weight id="2315" MUR="1.0" MUF="1.0" PDF="292300" > PDF=292200 MemberID=100 </weight>
<weight id="2316" MUR="1.0" MUF="1.0" PDF="292301" > PDF=292200 MemberID=101 </weight>
<weight id="2317" MUR="1.0" MUF="1.0" PDF="292302" > PDF=292200 MemberID=102 </weight>
</weightgroup> # PDFSET -> PDF
<weight id="2318" MUR="1.0" MUF="1.0" PDF="292600" > PDF=292600 MemberID=0 </weight>
<weight id="2319" MUR="1.0" MUF="1.0" PDF="315000" > PDF=315000 MemberID=0 </weight>
<weight id="2320" MUR="1.0" MUF="1.0" PDF="315200" > PDF=315200 MemberID=0 </weight>
<weight id="2321" MUR="1.0" MUF="1.0" PDF="262000" > PDF=262000 MemberID=0 </weight>
<weight id="2322" MUR="1.0" MUF="1.0" PDF="263000" > PDF=263000 MemberID=0 </weight>
</initrwgt>
<MGGenerationInfo>
#  Number of Events        :       5000
#  Integrated weight (pb)   : 839.217707165
</MGGenerationInfo>
<madspin>
set seed 884675221
import /afs/crc.nd.edu/user/h/hnelson2/genproductions/bin/MadGraph5_aMCatNLO/ttJets_LO_SMEFT/ttJets_LO_SMEFT_gridpack/work/unweighted_events.lhe.gz
set ms_dir ./madspingrid
set max_running_process 1
set max_weight_ps_point 400  
define l+ = e+ mu+ ta+
define l- = e- mu- ta-
define vl = ve vm vt
define vl~ = ve~ vm~ vt~
decay t > w+ b NP=0, w+ > l+ vl NP=0
decay t~ > w- b~ NP=0, w- > l- vl~ NP=0
launch
</madspin>
</header>
<init>
2212 2212 6.500000e+03 6.500000e+03 0 0 325300 325300 -3 2
 8.643888175245E+02 2.105347359700E+01 1.157968122644E+02 1
 2.935789986120E+02 6.203442546347E+00 1.157968122644E+02 0
<generator name='MadGraph5_aMC@NLO' version='2.6.5'>please cite 1405.0301 </generator>
</init>
<event>
13      1 +1.1579678e+02 1.91269800e+02 7.81859000e-03 1.06150500e-01
        2 -1    0    0  502    0 +0.0000000000e+00 +0.0000000000e+00 +1.3679514255e+03 1.3679514255e+03 0.0000000000e+00 0.0000e+00 -1.0000e+00
       -2 -1    0    0    0  501 +0.0000000000e+00 +0.0000000000e+00 -3.5973633631e+02 3.5973633631e+02 0.0000000000e+00 0.0000e+00 1.0000e+00
        6  2    1    2  502    0 -7.5323211596e+00 -7.7684161264e+01 +1.1724819609e+03 1.1876735095e+03 1.7251913445e+02 0.0000e+00 0.0000e+00
        5  1    3    3  502    0 +4.9313255025e+01 -2.4465416844e+01 +1.6338510775e+02 1.7240953332e+02 0.0000000000e+00 0.0000e+00 -1.0000e+00
       24  2    3    3    0    0 -5.6845576184e+01 -5.3218744421e+01 +1.0090968531e+03 1.0152639762e+03 8.0130069341e+01 0.0000e+00 0.0000e+00
      -15  1    5    5    0    0 -1.0164142668e+01 -3.3606834577e+01 +1.2843077313e+02 1.3314350383e+02 0.0000000000e+00 0.0000e+00 1.0000e+00
       16  1    5    5    0    0 -4.6681433517e+01 -1.9611909844e+01 +8.8066608001e+02 8.8212047234e+02 0.0000000000e+00 0.0000e+00 -1.0000e+00
       -6  2    1    2    0  503 -7.1893256526e+01 +2.4644657340e+02 -1.7059597007e+02 3.5338833872e+02 1.7284611384e+02 0.0000e+00 0.0000e+00
       -5  1    8    8    0  503 -8.2035696560e+01 +1.4129908484e+02 -4.1562741569e+01 1.6859047533e+02 0.0000000000e+00 0.0000e+00 1.0000e+00
      -24  2    8    8    0    0 +1.0142440034e+01 +1.0514748856e+02 -1.2903322850e+02 1.8479786339e+02 7.9635499722e+01 0.0000e+00 0.0000e+00
       15  1   10   10    0    0 +3.3031447773e+01 +1.1287011897e+01 -4.3419079340e+01 5.5710767633e+01 0.0000000000e+00 0.0000e+00 -1.0000e+00
      -16  1   10   10    0    0 -2.2889007739e+01 +9.3860476661e+01 -8.5614149164e+01 1.2908709576e+02 0.0000000000e+00 0.0000e+00 1.0000e+00
       21  1    1    2  503  501 +7.9425577686e+01 -1.6876241213e+02 +6.3290983694e+00 1.8662591360e+02 0.0000000000e+00 0.0000e+00 1.0000e+00
<scales pt_clust_1="13000.0" pt_clust_2="13000.0" pt_clust_3="13000.0" pt_clust_4="13000.0" pt_clust_5="13000.0" pt_clust_6="13000.0" pt_clust_7="186.52740"></scales>
<mgrwt>
<rscale>  2 0.19126984e+03</rscale>
<asrwt>  1 0.18652740e+03</asrwt>
<pdfrwt beam="1">  1        2 0.21045406e+00 0.19126984e+03</pdfrwt>
<pdfrwt beam="2">  2       -2       -2 0.55344052e-01 0.37571789e-01 0.18652740e+03 0.19126984e+03</pdfrwt>
<totfact> 0.81486171e-02</totfact>
</mgrwt>
<clustering>
<clus scale="  186.527">  2  5  1 -1</clus>
<clus scale=" 1116.708">  3  4 -1 -1</clus>
<clus scale="  191.270">  1  3  2 -1</clus>
</clustering>
<rwgt>
<wgt id='reference_point'> +1.1579678e+02 </wgt>
<wgt id='eftrwgt0_ctg_-0.754_cqq83_2.978_cqq81_11.175_cqu8_-0.722_cqd8_-22.551_ctq8_11.076_ctu8_-15.131_ctd8_20.128_cqq13_0.321_cqq11_-6.675_cqu1_-3.516_cqd1_6.151_ctq1_5.402_ctu1_-8.742_ctd1_5.367'> +2.7908526e+02 </wgt>
<wgt id='eftrwgt1_ctg_-1.195_cqq83_-15.761_cqq81_-4.235_cqu8_-15.499_cqd8_-10.228_ctq8_-0.966_ctu8_-17.272_ctd8_-16.58_cqq13_-4.893_cqq11_4.278_cqu1_-0.839_cqd1_-4.333_ctq1_2.613_ctu1_-1.417_ctd1_-2.816'> +3.1706349e+01 </wgt>
<wgt id='eftrwgt2_ctg_-1.383_cqq83_5.883_cqq81_-5.515_cqu8_2.394_cqd8_-9.03_ctq8_-0.054_ctu8_-11.517_ctd8_-10.825_cqq13_-0.011_cqq11_4.192_cqu1_6.747_cqd1_8.549_ctq1_7.513_ctu1_-7.841_ctd1_7.605'> +6.1330264e+01 </wgt>
<wgt id='eftrwgt3_ctg_0.83_cqq83_7.564_cqq81_-4.758_cqu8_11.03_cqd8_2.018_ctq8_13.609_ctu8_6.693_ctd8_12.801_cqq13_1.059_cqq11_-4.128_cqu1_0.962_cqd1_4.274_ctq1_8.055_ctu1_-10.409_ctd1_-1.438'> +4.6265723e+01 </wgt>
<wgt id='eftrwgt4_ctg_0.635_cqq83_-11.713_cqq81_0.383_cqu8_10.984_cqd8_-20.924_ctq8_-2.091_ctu8_5.555_ctd8_1.514_cqq13_3.429_cqq11_-0.162_cqu1_-10.649_cqd1_5.475_ctq1_5.872_ctu1_-1.687_ctd1_-8.071'> +9.5268637e+01 </wgt>
<wgt id='eftrwgt5_ctg_0.29_cqq83_4.054_cqq81_-1.527_cqu8_-4.305_cqd8_-20.381_ctq8_12.02_ctu8_-17.198_ctd8_4.416_cqq13_-0.765_cqq11_-1.818_cqu1_-0.276_cqd1_12.045_ctq1_-6.626_ctu1_4.803_ctd1_5.994'> +3.9513236e+01 </wgt>
<wgt id='eftrwgt6_ctg_0.363_cqq83_-5.38_cqq81_10.485_cqu8_-11.932_cqd8_-4.948_ctq8_9.185_ctu8_-12.064_ctd8_17.315_cqq13_-0.222_cqq11_-6.441_cqu1_-7.804_cqd1_-9.036_ctq1_-7.458_ctu1_9.293_ctd1_3.977'> +2.1958051e+02 </wgt>
<wgt id='eftrwgt7_ctg_-1.197_cqq83_-4.451_cqq81_7.597_cqu8_-7.443_cqd8_22.122_ctq8_3.031_ctu8_-12.259_ctd8_16.154_cqq13_-6.717_cqq11_-0.945_cqu1_5.096_cqd1_2.249_ctq1_-0.68_ctu1_-7.751_ctd1_8.44'> +2.4786991e+02 </wgt>
<wgt id='eftrwgt8_ctg_0.542_cqq83_-14.102_cqq81_-2.643_cqu8_18.837_cqd8_-13.941_ctq8_-13.421_ctu8_13.125_ctd8_-6.068_cqq13_-0.748_cqq11_-1.138_cqu1_3.707_cqd1_-4.4_ctq1_2.065_ctu1_5.13_ctd1_4.025'> +7.2506339e+00 </wgt>
<wgt id='eftrwgt9_ctg_1.074_cqq83_4.736_cqq81_-13.002_cqu8_-15.389_cqd8_0.91_ctq8_-9.328_ctu8_7.624_ctd8_-22.019_cqq13_3.75_cqq11_-2.977_cqu1_-3.02_cqd1_-13.923_ctq1_-7.186_ctu1_2.633_ctd1_-7.896'> +1.3602422e+01 </wgt>
<wgt id='eftrwgt10_ctg_1.238_cqq83_-17.533_cqq81_12.633_cqu8_3.116_cqd8_9.117_ctq8_-4.456_ctu8_0.149_ctd8_15.76_cqq13_-4.569_cqq11_4.155_cqu1_6.051_cqd1_-8.105_ctq1_0.824_ctu1_0.75_ctd1_6.587'> +5.2208246e-01 </wgt>
<wgt id='eftrwgt11_ctg_-1.233_cqq83_-17.319_cqq81_-5.312_cqu8_16.53_cqd8_-9.607_ctq8_-3.402_ctu8_-16.447_ctd8_-22.15_cqq13_-0.265_cqq11_4.394_cqu1_-0.387_cqd1_0.421_ctq1_2.017_ctu1_-6.772_ctd1_6.873'> +2.2705988e+02 </wgt>
<wgt id='eftrwgt12_ctg_0.408_cqq83_-9.97_cqq81_3.05_cqu8_8.428_cqd8_-10.45_ctq8_-4.549_ctu8_7.41_ctd8_-18.252_cqq13_4.276_cqq11_0.305_cqu1_-4.657_cqd1_-5.86_ctq1_4.293_ctu1_-6.686_ctd1_-6.47'> +1.1563754e+02 </wgt>
<wgt id='eftrwgt13_ctg_1.091_cqq83_16.651_cqq81_9.034_cqu8_-17.068_cqd8_-16.41_ctq8_5.505_ctu8_-6.023_ctd8_-19.606_cqq13_-1.427_cqq11_2.94_cqu1_-7.645_cqd1_-9.373_ctq1_-6.218_ctu1_1.987_ctd1_-10.94'> +4.7528214e+01 </wgt>
<wgt id='eftrwgt14_ctg_-0.901_cqq83_-3.298_cqq81_-0.028_cqu8_-17.181_cqd8_-17.858_ctq8_-13.488_ctu8_-10.256_ctd8_-0.921_cqq13_4.443_cqq11_-0.633_cqu1_-9.228_cqd1_11.328_ctq1_-0.213_ctu1_-0.551_ctd1_-5.789'> +6.5333009e+01 </wgt>
<wgt id='eftrwgt15_ctg_1.026_cqq83_10.852_cqq81_-7.218_cqu8_6.384_cqd8_16.276_ctq8_-4.737_ctu8_-13.404_ctd8_1.733_cqq13_7.315_cqq11_-8.101_cqu1_-2.738_cqd1_7.548_ctq1_8.479_ctu1_-6.738_ctd1_-5.539'> +7.2409648e+00 </wgt>
<wgt id='eftrwgt16_ctg_-0.132_cqq83_-16.656_cqq81_4.305_cqu8_-12.062_cqd8_4.31_ctq8_13.615_ctu8_3.27_ctd8_11.552_cqq13_-1.799_cqq11_7.423_cqu1_6.843_cqd1_13.535_ctq1_0.146_ctu1_7.054_ctd1_9.686'> +2.0277075e+02 </wgt>
<wgt id='eftrwgt17_ctg_0.712_cqq83_-6.61_cqq81_-4.301_cqu8_-1.403_cqd8_6.303_ctq8_-4.86_ctu8_3.128_ctd8_-14.844_cqq13_0.039_cqq11_-4.957_cqu1_2.629_cqd1_-12.532_ctq1_4.939_ctu1_-4.209_ctd1_-3.655'> +3.7265592e+01 </wgt>
<wgt id='eftrwgt18_ctg_-1.35_cqq83_-11.68_cqq81_4.439_cqu8_13.372_cqd8_-0.653_ctq8_5.688_ctu8_0.67_ctd8_-7.709_cqq13_-5.475_cqq11_-5.399_cqu1_3.601_cqd1_-8.439_ctq1_1.117_ctu1_-0.006_ctd1_13.614'> +3.4239281e+02 </wgt>
<wgt id='eftrwgt19_ctg_0.098_cqq83_15.517_cqq81_-5.712_cqu8_-4.013_cqd8_-7.836_ctq8_-1.046_ctu8_-12.063_ctd8_6.039_cqq13_-3.557_cqq11_7.181_cqu1_6.996_cqd1_-3.116_ctq1_1.869_ctu1_1.545_ctd1_-10.959'> +1.5116437e+01 </wgt>
<wgt id='eftrwgt20_ctg_0.401_cqq83_8.943_cqq81_9.36_cqu8_14.22_cqd8_-14.886_ctq8_8.313_ctu8_5.302_ctd8_-10.568_cqq13_-2.406_cqq11_5.185_cqu1_-6.752_cqd1_-3.344_ctq1_-0.322_ctu1_-1.749_ctd1_2.241'> +8.3423843e+00 </wgt>
<wgt id='eftrwgt21_ctg_0.263_cqq83_-7.003_cqq81_9.705_cqu8_13.582_cqd8_19.058_ctq8_12.946_ctu8_6.424_ctd8_17.248_cqq13_-4.887_cqq11_-3.405_cqu1_10.633_cqd1_-6.948_ctq1_5.694_ctu1_-6.922_ctd1_1.277'> +2.7806893e+02 </wgt>
<wgt id='eftrwgt22_ctg_0.627_cqq83_-17.281_cqq81_-4.961_cqu8_16.938_cqd8_22.735_ctq8_-1.208_ctu8_-3.511_ctd8_-5.122_cqq13_5.387_cqq11_-4.565_cqu1_7.804_cqd1_11.098_ctq1_-1.5_ctu1_8.736_ctd1_13.194'> +7.5671530e+01 </wgt>
<wgt id='eftrwgt23_ctg_-0.648_cqq83_15.811_cqq81_12.009_cqu8_-18.949_cqd8_0.783_ctq8_-3.059_ctu8_-17.702_ctd8_-6.711_cqq13_-4.356_cqq11_3.652_cqu1_-8.368_cqd1_-4.016_ctq1_2.411_ctu1_3.109_ctd1_4.001'> +1.2030697e+02 </wgt>
<wgt id='eftrwgt24_ctg_0.279_cqq83_3.419_cqq81_-12.348_cqu8_-3.685_cqd8_-7.428_ctq8_10.986_ctu8_-5.15_ctd8_-17.732_cqq13_-2.497_cqq11_-5.647_cqu1_0.002_cqd1_-4.035_ctq1_-3.93_ctu1_-1.854_ctd1_8.352'> +1.7168301e+02 </wgt>
<wgt id='eftrwgt25_ctg_1.257_cqq83_8.7_cqq81_-13.787_cqu8_1.396_cqd8_-4.553_ctq8_0.437_ctu8_6.957_ctd8_15.293_cqq13_7.476_cqq11_-5.974_cqu1_-3.383_cqd1_-2.371_ctq1_-0.219_ctu1_2.622_ctd1_-7.856'> +1.7201942e+01 </wgt>
<wgt id='eftrwgt26_ctg_-1.323_cqq83_-5.612_cqq81_0.616_cqu8_6.632_cqd8_-3.336_ctq8_13.782_ctu8_-3.939_ctd8_-15.742_cqq13_2.848_cqq11_5.501_cqu1_-1.125_cqd1_-13.284_ctq1_-0.806_ctu1_-0.98_ctd1_-3.316'> +2.8942632e+02 </wgt>
<wgt id='eftrwgt27_ctg_-1.062_cqq83_-5.785_cqq81_-3.069_cqu8_7.318_cqd8_-18.47_ctq8_-5.182_ctu8_-7.369_ctd8_-7.449_cqq13_-0.119_cqq11_-7.366_cqu1_-4.956_cqd1_-13.113_ctq1_-1.612_ctu1_-8.864_ctd1_-9.975'> +1.3619504e+02 </wgt>
<wgt id='eftrwgt28_ctg_0.241_cqq83_-10.317_cqq81_-13.275_cqu8_-8.248_cqd8_-17.794_ctq8_-12.823_ctu8_-16.47_ctd8_-4.449_cqq13_-2.362_cqq11_4.11_cqu1_-10.775_cqd1_-8.582_ctq1_2.037_ctu1_-10.4_ctd1_1.059'> +1.2182007e+02 </wgt>
<wgt id='eftrwgt29_ctg_0.186_cqq83_-14.559_cqq81_-7.088_cqu8_-18.724_cqd8_-0.974_ctq8_-0.831_ctu8_6.546_ctd8_-21.38_cqq13_-1.637_cqq11_2.85_cqu1_2.42_cqd1_-0.935_ctq1_-8.07_ctu1_5.575_ctd1_0.549'> +8.0757159e+01 </wgt>
<wgt id='eftrwgt30_ctg_-1.395_cqq83_-10.203_cqq81_12.938_cqu8_3.137_cqd8_11.131_ctq8_9.079_ctu8_-0.374_ctd8_-23.313_cqq13_-4.383_cqq11_-1.0_cqu1_1.541_cqd1_2.342_ctq1_-4.241_ctu1_-4.162_ctd1_-12.306'> +1.3152399e+02 </wgt>
<wgt id='eftrwgt31_ctg_0.115_cqq83_-15.901_cqq81_-6.358_cqu8_-16.907_cqd8_-5.747_ctq8_2.066_ctu8_-12.966_ctd8_-16.328_cqq13_-3.096_cqq11_2.684_cqu1_-8.352_cqd1_-6.211_ctq1_2.511_ctu1_5.799_ctd1_9.554'> +4.4588687e+01 </wgt>
<wgt id='eftrwgt32_ctg_1.117_cqq83_2.704_cqq81_7.787_cqu8_-16.533_cqd8_8.904_ctq8_10.253_ctu8_2.612_ctd8_4.645_cqq13_-5.493_cqq11_2.812_cqu1_-7.509_cqd1_-3.19_ctq1_-6.22_ctu1_5.276_ctd1_5.86'> +8.2897849e+01 </wgt>
<wgt id='eftrwgt33_ctg_0.209_cqq83_-8.091_cqq81_-11.607_cqu8_-16.123_cqd8_-8.064_ctq8_-3.29_ctu8_-14.767_ctd8_-13.018_cqq13_-5.739_cqq11_0.542_cqu1_-1.411_cqd1_-8.179_ctq1_-5.997_ctu1_-7.343_ctd1_12.169'> +2.3412501e+01 </wgt>
<wgt id='eftrwgt34_ctg_-1.122_cqq83_6.387_cqq81_-1.268_cqu8_-5.867_cqd8_-9.336_ctq8_-2.052_ctu8_-17.13_ctd8_21.742_cqq13_0.581_cqq11_5.886_cqu1_-10.133_cqd1_-11.29_ctq1_-6.71_ctu1_3.942_ctd1_9.713'> +1.0382640e+02 </wgt>
<wgt id='eftrwgt35_ctg_-1.321_cqq83_10.781_cqq81_5.96_cqu8_-16.967_cqd8_5.511_ctq8_-3.29_ctu8_-3.816_ctd8_-14.387_cqq13_-5.938_cqq11_-2.941_cqu1_-5.98_cqd1_11.576_ctq1_0.788_ctu1_10.277_ctd1_-4.905'> +4.9914592e+02 </wgt>
<wgt id='eftrwgt36_ctg_-0.68_cqq83_-4.656_cqq81_2.64_cqu8_-5.091_cqd8_-6.267_ctq8_12.357_ctu8_4.141_ctd8_8.527_cqq13_4.229_cqq11_-0.357_cqu1_6.729_cqd1_-0.812_ctq1_5.304_ctu1_-6.109_ctd1_-13.243'> +6.1139082e+01 </wgt>
<wgt id='eftrwgt37_ctg_-1.287_cqq83_-9.3_cqq81_-1.066_cqu8_-15.272_cqd8_5.656_ctq8_0.824_ctu8_-7.129_ctd8_-5.439_cqq13_-7.864_cqq11_0.302_cqu1_3.094_cqd1_1.84_ctq1_-4.372_ctu1_-7.563_ctd1_2.217'> +1.3195869e+02 </wgt>
<wgt id='eftrwgt38_ctg_0.789_cqq83_2.618_cqq81_-0.896_cqu8_4.006_cqd8_12.013_ctq8_-9.44_ctu8_-16.781_ctd8_-6.655_cqq13_-5.548_cqq11_2.529_cqu1_7.52_cqd1_-4.256_ctq1_5.745_ctu1_0.798_ctd1_7.829'> +3.9584528e+01 </wgt>
<wgt id='eftrwgt39_ctg_0.721_cqq83_1.632_cqq81_7.373_cqu8_-0.631_cqd8_4.104_ctq8_12.802_ctu8_-10.868_ctd8_-5.968_cqq13_-1.832_cqq11_-3.336_cqu1_-4.17_cqd1_-6.056_ctq1_-3.676_ctu1_5.679_ctd1_-9.027'> +1.7353692e+02 </wgt>
<wgt id='eftrwgt40_ctg_-0.362_cqq83_-1.589_cqq81_6.197_cqu8_-18.27_cqd8_7.832_ctq8_-9.399_ctu8_-6.455_ctd8_10.547_cqq13_-4.378_cqq11_5.514_cqu1_-8.215_cqd1_4.889_ctq1_5.265_ctu1_10.009_ctd1_3.422'> +1.0828527e+00 </wgt>
<wgt id='eftrwgt41_ctg_0.658_cqq83_-10.403_cqq81_3.211_cqu8_-2.337_cqd8_17.509_ctq8_6.996_ctu8_-1.761_ctd8_-2.923_cqq13_7.515_cqq11_-0.097_cqu1_0.074_cqd1_12.92_ctq1_-6.01_ctu1_-8.626_ctd1_2.326'> +2.4791828e+02 </wgt>
<wgt id='eftrwgt42_ctg_0.239_cqq83_-0.972_cqq81_-1.122_cqu8_-17.342_cqd8_-7.199_ctq8_-12.68_ctu8_1.247_ctd8_17.533_cqq13_-6.465_cqq11_-5.436_cqu1_9.489_cqd1_-0.985_ctq1_8.129_ctu1_-5.418_ctd1_5.104'> +4.7250692e+02 </wgt>
<wgt id='eftrwgt43_ctg_-0.649_cqq83_12.017_cqq81_-8.81_cqu8_-11.947_cqd8_-0.617_ctq8_-8.389_ctu8_-11.126_ctd8_-23.747_cqq13_-2.837_cqq11_5.496_cqu1_4.701_cqd1_4.955_ctq1_2.49_ctu1_2.683_ctd1_-7.631'> +1.5614913e+01 </wgt>
<wgt id='eftrwgt44_ctg_0.171_cqq83_12.009_cqq81_1.908_cqu8_4.651_cqd8_-17.53_ctq8_4.385_ctu8_9.354_ctd8_6.605_cqq13_0.349_cqq11_-3.295_cqu1_-5.85_cqd1_-13.524_ctq1_0.629_ctu1_-6.984_ctd1_13.334'> +1.0882981e+02 </wgt>
<wgt id='eftrwgt45_ctg_1.117_cqq83_-1.134_cqq81_0.846_cqu8_-17.819_cqd8_7.834_ctq8_-1.016_ctu8_17.048_ctd8_-16.169_cqq13_3.138_cqq11_-2.054_cqu1_-10.535_cqd1_-6.766_ctq1_2.47_ctu1_6.02_ctd1_11.267'> +3.7568057e+00 </wgt>
<wgt id='eftrwgt46_ctg_0.852_cqq83_-5.375_cqq81_-1.252_cqu8_-6.421_cqd8_17.384_ctq8_4.252_ctu8_6.891_ctd8_10.51_cqq13_-4.608_cqq11_7.589_cqu1_-6.678_cqd1_11.188_ctq1_-3.189_ctu1_-10.063_ctd1_0.955'> +5.3473233e+01 </wgt>
<wgt id='eftrwgt47_ctg_0.672_cqq83_10.633_cqq81_-10.436_cqu8_3.141_cqd8_5.015_ctq8_-11.403_ctu8_-4.418_ctd8_-1.92_cqq13_0.491_cqq11_-8.212_cqu1_-0.701_cqd1_-0.931_ctq1_5.075_ctu1_5.776_ctd1_-9.187'> +2.1583208e+02 </wgt>
<wgt id='eftrwgt48_ctg_0.097_cqq83_-13.235_cqq81_3.083_cqu8_-6.992_cqd8_-21.927_ctq8_-1.972_ctu8_12.828_ctd8_-23.378_cqq13_1.548_cqq11_-7.292_cqu1_-7.809_cqd1_-3.663_ctq1_-0.091_ctu1_3.906_ctd1_0.689'> +6.4373014e+01 </wgt>
<wgt id='eftrwgt49_ctg_1.029_cqq83_-0.471_cqq81_-7.658_cqu8_-14.403_cqd8_16.435_ctq8_-10.202_ctu8_-12.269_ctd8_-13.394_cqq13_-1.09_cqq11_4.914_cqu1_-4.324_cqd1_0.827_ctq1_-4.544_ctu1_-0.962_ctd1_9.864'> +8.8794035e+01 </wgt>
<wgt id='eftrwgt50_ctg_-0.665_cqq83_-14.242_cqq81_-8.115_cqu8_4.63_cqd8_10.452_ctq8_-13.832_ctu8_-13.909_ctd8_-10.071_cqq13_-2.706_cqq11_1.201_cqu1_0.148_cqd1_-0.781_ctq1_-6.102_ctu1_-6.349_ctd1_6.964'> +2.3333287e+01 </wgt>
<wgt id='eftrwgt51_ctg_-0.787_cqq83_-15.261_cqq81_8.809_cqu8_-2.155_cqd8_-17.025_ctq8_-6.971_ctu8_10.751_ctd8_-10.297_cqq13_-0.617_cqq11_7.049_cqu1_-7.986_cqd1_-2.061_ctq1_0.449_ctu1_6.857_ctd1_-13.813'> +1.9631128e+02 </wgt>
<wgt id='eftrwgt52_ctg_0.862_cqq83_17.48_cqq81_4.698_cqu8_8.08_cqd8_9.692_ctq8_3.485_ctu8_11.755_ctd8_-3.559_cqq13_6.645_cqq11_2.713_cqu1_-8.115_cqd1_8.608_ctq1_-6.273_ctu1_7.111_ctd1_5.866'> +1.1433512e+02 </wgt>
<wgt id='eftrwgt53_ctg_-0.903_cqq83_3.892_cqq81_-1.362_cqu8_-12.339_cqd8_-12.919_ctq8_2.258_ctu8_8.165_ctd8_16.95_cqq13_-4.352_cqq11_1.546_cqu1_7.695_cqd1_11.734_ctq1_2.3_ctu1_9.781_ctd1_1.838'> +3.9541626e+01 </wgt>
<wgt id='eftrwgt54_ctg_-0.522_cqq83_-0.949_cqq81_-0.037_cqu8_14.405_cqd8_-4.088_ctq8_-5.643_ctu8_8.684_ctd8_-21.06_cqq13_-6.966_cqq11_-5.093_cqu1_-4.897_cqd1_2.455_ctq1_-3.435_ctu1_3.57_ctd1_-7.932'> +5.2027423e+02 </wgt>
<wgt id='eftrwgt55_ctg_-0.222_cqq83_1.213_cqq81_10.848_cqu8_-14.188_cqd8_-19.129_ctq8_4.966_ctu8_6.833_ctd8_-10.208_cqq13_6.393_cqq11_2.922_cqu1_9.268_cqd1_9.372_ctq1_3.58_ctu1_5.027_ctd1_13.963'> +1.8975896e+02 </wgt>
<wgt id='eftrwgt56_ctg_-0.064_cqq83_-13.896_cqq81_-9.146_cqu8_-12.936_cqd8_6.184_ctq8_-9.142_ctu8_7.671_ctd8_-23.063_cqq13_-5.638_cqq11_0.314_cqu1_3.549_cqd1_13.313_ctq1_7.463_ctu1_-2.827_ctd1_4.274'> +1.7041323e+01 </wgt>
<wgt id='eftrwgt57_ctg_0.55_cqq83_-0.366_cqq81_13.131_cqu8_-11.082_cqd8_-6.326_ctq8_-1.457_ctu8_-10.801_ctd8_-1.042_cqq13_-6.705_cqq11_-3.081_cqu1_2.128_cqd1_13.722_ctq1_-3.878_ctu1_8.438_ctd1_-10.644'> +5.2861397e+02 </wgt>
<wgt id='eftrwgt58_ctg_-0.739_cqq83_-1.927_cqq81_-4.498_cqu8_-7.655_cqd8_-12.724_ctq8_7.311_ctu8_0.6_ctd8_-24.282_cqq13_7.046_cqq11_-1.157_cqu1_2.74_cqd1_1.196_ctq1_0.456_ctu1_10.57_ctd1_6.47'> +1.6614895e+02 </wgt>
<wgt id='eftrwgt59_ctg_-0.809_cqq83_6.461_cqq81_5.164_cqu8_7.348_cqd8_-10.049_ctq8_-9.039_ctu8_11.156_ctd8_17.765_cqq13_2.406_cqq11_-3.454_cqu1_-8.251_cqd1_3.987_ctq1_-2.608_ctu1_-5.906_ctd1_-13.122'> +3.7966157e+01 </wgt>
<wgt id='eftrwgt60_ctg_0.321_cqq83_5.49_cqq81_9.481_cqu8_6.2_cqd8_6.877_ctq8_-2.766_ctu8_2.591_ctd8_5.007_cqq13_4.948_cqq11_-5.846_cqu1_1.836_cqd1_2.37_ctq1_3.758_ctu1_-2.994_ctd1_-9.755'> +4.7652561e+01 </wgt>
<wgt id='eftrwgt61_ctg_0.309_cqq83_13.504_cqq81_0.142_cqu8_15.303_cqd8_-11.281_ctq8_-13.865_ctu8_10.736_ctd8_-18.349_cqq13_0.658_cqq11_-2.407_cqu1_-8.659_cqd1_5.691_ctq1_0.834_ctu1_-7.918_ctd1_8.27'> +6.4213344e+01 </wgt>
<wgt id='eftrwgt62_ctg_-0.755_cqq83_1.09_cqq81_-2.059_cqu8_14.895_cqd8_0.941_ctq8_-0.117_ctu8_-3.607_ctd8_-7.303_cqq13_2.029_cqq11_-6.951_cqu1_-7.372_cqd1_-8.246_ctq1_-0.626_ctu1_-0.403_ctd1_-6.554'> +8.5727710e+01 </wgt>
<wgt id='eftrwgt63_ctg_-1.189_cqq83_3.274_cqq81_5.97_cqu8_-8.688_cqd8_14.017_ctq8_2.273_ctu8_14.433_ctd8_-19.069_cqq13_-4.403_cqq11_3.367_cqu1_-4.681_cqd1_10.796_ctq1_-4.846_ctu1_1.054_ctd1_-13.006'> +2.9934637e+01 </wgt>
<wgt id='eftrwgt64_ctg_0.949_cqq83_12.237_cqq81_-2.266_cqu8_-10.878_cqd8_-7.642_ctq8_-6.632_ctu8_-5.91_ctd8_22.286_cqq13_-6.42_cqq11_-0.839_cqu1_-9.914_cqd1_11.165_ctq1_5.728_ctu1_-2.834_ctd1_-11.273'> +2.8800515e+02 </wgt>
<wgt id='eftrwgt65_ctg_-1.077_cqq83_6.554_cqq81_-5.771_cqu8_-11.958_cqd8_-5.175_ctq8_6.893_ctu8_-15.271_ctd8_-11.605_cqq13_-2.625_cqq11_5.619_cqu1_-3.062_cqd1_8.844_ctq1_8.759_ctu1_7.743_ctd1_-9.404'> +2.9801028e+01 </wgt>
<wgt id='eftrwgt66_ctg_0.739_cqq83_-0.73_cqq81_-3.942_cqu8_0.197_cqd8_-20.568_ctq8_-3.855_ctu8_3.62_ctd8_-1.663_cqq13_1.279_cqq11_-5.868_cqu1_-1.596_cqd1_4.61_ctq1_-0.985_ctu1_5.278_ctd1_1.935'> +5.6594619e+01 </wgt>
<wgt id='eftrwgt67_ctg_-1.144_cqq83_-9.411_cqq81_11.632_cqu8_13.794_cqd8_19.35_ctq8_-9.734_ctu8_17.462_ctd8_-9.013_cqq13_6.095_cqq11_1.653_cqu1_10.71_cqd1_-11.055_ctq1_7.571_ctu1_0.484_ctd1_-1.685'> +1.9717429e+02 </wgt>
<wgt id='eftrwgt68_ctg_0.408_cqq83_3.73_cqq81_-12.673_cqu8_-15.054_cqd8_23.598_ctq8_0.269_ctu8_8.53_ctd8_-19.396_cqq13_1.648_cqq11_6.789_cqu1_-10.541_cqd1_-5.767_ctq1_-2.558_ctu1_-8.764_ctd1_1.857'> +3.3860442e+02 </wgt>
<wgt id='eftrwgt69_ctg_0.663_cqq83_-13.808_cqq81_11.681_cqu8_8.175_cqd8_23.585_ctq8_-6.295_ctu8_5.707_ctd8_-2.004_cqq13_2.652_cqq11_0.351_cqu1_-4.864_cqd1_13.53_ctq1_-5.642_ctu1_0.492_ctd1_8.029'> +3.4685604e+01 </wgt>
<wgt id='eftrwgt70_ctg_-0.454_cqq83_-0.455_cqq81_-2.236_cqu8_8.99_cqd8_14.139_ctq8_-10.102_ctu8_-6.093_ctd8_-2.425_cqq13_3.095_cqq11_-0.462_cqu1_-1.855_cqd1_11.152_ctq1_2.965_ctu1_0.951_ctd1_-6.03'> +3.2905140e+01 </wgt>
<wgt id='eftrwgt71_ctg_-0.477_cqq83_-16.758_cqq81_13.224_cqu8_13.232_cqd8_-5.763_ctq8_9.379_ctu8_-10.048_ctd8_-23.022_cqq13_4.391_cqq11_-6.178_cqu1_-8.099_cqd1_-8.009_ctq1_-1.03_ctu1_-2.674_ctd1_-1.681'> +6.9159462e+00 </wgt>
<wgt id='eftrwgt72_ctg_0.622_cqq83_2.696_cqq81_-10.207_cqu8_5.957_cqd8_7.886_ctq8_4.197_ctu8_8.121_ctd8_-20.035_cqq13_2.851_cqq11_-6.744_cqu1_-10.799_cqd1_2.202_ctq1_-7.508_ctu1_-1.701_ctd1_8.892'> +3.1812092e+01 </wgt>
<wgt id='eftrwgt73_ctg_-0.493_cqq83_10.355_cqq81_1.302_cqu8_-9.783_cqd8_-15.531_ctq8_-10.402_ctu8_5.144_ctd8_6.559_cqq13_5.572_cqq11_-0.688_cqu1_-7.729_cqd1_4.564_ctq1_-4.037_ctu1_3.296_ctd1_-5.207'> +3.0439147e+01 </wgt>
<wgt id='eftrwgt74_ctg_-1.313_cqq83_-14.474_cqq81_-0.652_cqu8_2.59_cqd8_16.401_ctq8_2.461_ctu8_-12.258_ctd8_-5.822_cqq13_6.708_cqq11_-5.017_cqu1_7.523_cqd1_10.388_ctq1_-3.975_ctu1_-5.142_ctd1_-12.623'> +6.0910923e+01 </wgt>
<wgt id='eftrwgt75_ctg_-0.166_cqq83_14.655_cqq81_-13.165_cqu8_13.182_cqd8_17.65_ctq8_8.035_ctu8_-7.41_ctd8_5.594_cqq13_-1.583_cqq11_4.47_cqu1_6.793_cqd1_9.148_ctq1_6.872_ctu1_4.564_ctd1_-3.17'> +2.4411416e+01 </wgt>
<wgt id='eftrwgt76_ctg_0.607_cqq83_-7.784_cqq81_0.889_cqu8_-5.808_cqd8_-18.52_ctq8_-10.702_ctu8_6.093_ctd8_5.795_cqq13_-4.86_cqq11_6.059_cqu1_5.977_cqd1_-3.82_ctq1_-0.432_ctu1_0.091_ctd1_12.704'> +1.8217889e+01 </wgt>
<wgt id='eftrwgt77_ctg_-0.008_cqq83_-13.549_cqq81_-2.371_cqu8_-17.548_cqd8_17.783_ctq8_-12.818_ctu8_-10.851_ctd8_-11.002_cqq13_-7.936_cqq11_-0.409_cqu1_4.737_cqd1_0.464_ctq1_-0.138_ctu1_-4.15_ctd1_2.286'> +1.2454093e+02 </wgt>
<wgt id='eftrwgt78_ctg_0.693_cqq83_-17.302_cqq81_-6.475_cqu8_7.814_cqd8_3.71_ctq8_7.916_ctu8_-4.439_ctd8_21.712_cqq13_-1.558_cqq11_5.054_cqu1_2.274_cqd1_7.748_ctq1_-4.741_ctu1_4.163_ctd1_-9.021'> +1.9339439e+02 </wgt>
<wgt id='eftrwgt79_ctg_-1.245_cqq83_-11.588_cqq81_7.305_cqu8_-18.227_cqd8_-8.677_ctq8_11.343_ctu8_2.055_ctd8_-10.604_cqq13_4.361_cqq11_6.251_cqu1_4.537_cqd1_-0.734_ctq1_3.998_ctu1_-6.261_ctd1_-5.045'> +4.5125152e+02 </wgt>
<wgt id='eftrwgt80_ctg_-0.18_cqq83_-10.265_cqq81_2.0_cqu8_-7.281_cqd8_10.418_ctq8_-8.392_ctu8_-11.821_ctd8_14.446_cqq13_4.32_cqq11_-7.909_cqu1_-1.266_cqd1_-1.485_ctq1_7.422_ctu1_-9.567_ctd1_-7.015'> +1.8122033e+01 </wgt>
<wgt id='eftrwgt81_ctg_0.953_cqq83_-15.744_cqq81_-8.719_cqu8_4.233_cqd8_5.5_ctq8_9.427_ctu8_-3.148_ctd8_13.913_cqq13_7.844_cqq11_-2.685_cqu1_-10.526_cqd1_-11.474_ctq1_1.94_ctu1_-0.862_ctd1_-11.271'> +3.0372947e+02 </wgt>
<wgt id='eftrwgt82_ctg_0.709_cqq83_-3.094_cqq81_5.584_cqu8_5.962_cqd8_-12.068_ctq8_7.256_ctu8_-14.777_ctd8_-14.389_cqq13_-4.278_cqq11_8.12_cqu1_0.179_cqd1_-1.651_ctq1_-8.145_ctu1_2.242_ctd1_-10.245'> +3.4590387e+01 </wgt>
<wgt id='eftrwgt83_ctg_0.687_cqq83_-1.156_cqq81_3.18_cqu8_-3.335_cqd8_-0.404_ctq8_-5.778_ctu8_6.62_ctd8_-17.153_cqq13_-5.912_cqq11_5.654_cqu1_-1.269_cqd1_8.004_ctq1_-1.868_ctu1_0.845_ctd1_4.292'> +2.3025820e+00 </wgt>
<wgt id='eftrwgt84_ctg_-0.183_cqq83_-0.308_cqq81_0.037_cqu8_14.309_cqd8_-5.805_ctq8_9.893_ctu8_-5.881_ctd8_-1.437_cqq13_-2.017_cqq11_-6.656_cqu1_-1.67_cqd1_-5.98_ctq1_-8.794_ctu1_2.683_ctd1_9.412'> +2.8671019e+02 </wgt>
<wgt id='eftrwgt85_ctg_-0.942_cqq83_15.035_cqq81_13.373_cqu8_-5.07_cqd8_16.019_ctq8_-8.366_ctu8_14.649_ctd8_22.16_cqq13_-4.681_cqq11_6.562_cqu1_-1.143_cqd1_-10.901_ctq1_-6.626_ctu1_7.385_ctd1_-3.635'> +5.0082608e+01 </wgt>
<wgt id='eftrwgt86_ctg_-0.142_cqq83_-2.994_cqq81_12.042_cqu8_8.306_cqd8_-8.182_ctq8_-12.155_ctu8_-0.571_ctd8_11.633_cqq13_-5.051_cqq11_1.519_cqu1_-1.733_cqd1_9.994_ctq1_-6.524_ctu1_4.94_ctd1_2.118'> +1.0063063e+02 </wgt>
<wgt id='eftrwgt87_ctg_0.929_cqq83_16.258_cqq81_4.432_cqu8_11.37_cqd8_2.732_ctq8_-0.209_ctu8_11.238_ctd8_0.002_cqq13_-3.184_cqq11_5.425_cqu1_-3.268_cqd1_11.628_ctq1_2.342_ctu1_-8.392_ctd1_13.454'> +1.5528164e+01 </wgt>
<wgt id='eftrwgt88_ctg_0.663_cqq83_-0.312_cqq81_4.634_cqu8_13.091_cqd8_20.152_ctq8_-11.08_ctu8_10.132_ctd8_8.016_cqq13_2.666_cqq11_-0.154_cqu1_10.589_cqd1_-1.792_ctq1_-0.235_ctu1_-1.608_ctd1_11.236'> +1.0516320e+01 </wgt>
<wgt id='eftrwgt89_ctg_-0.7_cqq83_-8.489_cqq81_-4.248_cqu8_-16.694_cqd8_11.319_ctq8_10.136_ctu8_16.621_ctd8_-12.449_cqq13_5.869_cqq11_0.2_cqu1_7.255_cqd1_6.776_ctq1_-7.91_ctu1_7.893_ctd1_-13.519'> +2.2375697e+02 </wgt>
<wgt id='eftrwgt90_ctg_1.035_cqq83_-14.726_cqq81_-10.269_cqu8_8.762_cqd8_-16.804_ctq8_-12.281_ctu8_-9.071_ctd8_-18.776_cqq13_-0.931_cqq11_-5.226_cqu1_2.228_cqd1_0.749_ctq1_4.043_ctu1_-9.625_ctd1_12.055'> +2.6055703e+01 </wgt>
<wgt id='eftrwgt91_ctg_0.582_cqq83_7.693_cqq81_-11.295_cqu8_-2.266_cqd8_14.634_ctq8_4.883_ctu8_17.79_ctd8_11.844_cqq13_-6.479_cqq11_-4.102_cqu1_2.603_cqd1_-3.346_ctq1_-0.515_ctu1_-6.838_ctd1_-11.52'> +3.6841662e+02 </wgt>
<wgt id='eftrwgt92_ctg_-1.029_cqq83_4.889_cqq81_-11.405_cqu8_13.309_cqd8_-14.979_ctq8_-5.195_ctu8_6.668_ctd8_-24.798_cqq13_5.441_cqq11_-0.506_cqu1_-0.753_cqd1_-13.543_ctq1_-8.67_ctu1_-7.915_ctd1_-0.334'> +1.1844920e+02 </wgt>
<wgt id='eftrwgt93_ctg_1.323_cqq83_-4.365_cqq81_-4.298_cqu8_7.237_cqd8_-13.74_ctq8_-0.526_ctu8_-16.032_ctd8_-23.867_cqq13_-2.711_cqq11_8.204_cqu1_-9.783_cqd1_-13.301_ctq1_5.357_ctu1_-4.585_ctd1_3.272'> +1.6943732e+02 </wgt>
<wgt id='eftrwgt94_ctg_0.923_cqq83_-5.687_cqq81_-9.274_cqu8_-6.946_cqd8_-18.634_ctq8_-2.87_ctu8_-10.48_ctd8_20.825_cqq13_0.818_cqq11_7.594_cqu1_-2.651_cqd1_-8.209_ctq1_-4.375_ctu1_-0.453_ctd1_-11.307'> +4.0960083e+02 </wgt>
<wgt id='eftrwgt95_ctg_-0.353_cqq83_16.887_cqq81_4.599_cqu8_5.271_cqd8_15.7_ctq8_9.777_ctu8_16.081_ctd8_11.396_cqq13_-1.084_cqq11_-4.79_cqu1_-0.778_cqd1_12.085_ctq1_-5.567_ctu1_-7.961_ctd1_2.198'> +3.4705293e+02 </wgt>
<wgt id='eftrwgt96_ctg_0.041_cqq83_-5.923_cqq81_-2.955_cqu8_4.903_cqd8_20.523_ctq8_-10.841_ctu8_-16.659_ctd8_-20.437_cqq13_-0.715_cqq11_3.365_cqu1_7.617_cqd1_-8.653_ctq1_-1.465_ctu1_-1.263_ctd1_-7.434'> +5.7989931e+01 </wgt>
<wgt id='eftrwgt97_ctg_0.464_cqq83_6.456_cqq81_3.991_cqu8_-17.621_cqd8_21.05_ctq8_-3.045_ctu8_-1.74_ctd8_-0.321_cqq13_-0.503_cqq11_-7.685_cqu1_3.634_cqd1_-8.072_ctq1_-8.465_ctu1_4.741_ctd1_-8.716'> +3.7562504e+02 </wgt>
<wgt id='eftrwgt98_ctg_1.109_cqq83_-17.675_cqq81_-12.841_cqu8_-7.769_cqd8_-4.881_ctq8_8.767_ctu8_1.909_ctd8_-17.434_cqq13_5.514_cqq11_4.151_cqu1_-4.537_cqd1_10.377_ctq1_-0.495_ctu1_-9.214_ctd1_-2.18'> +7.7019745e+02 </wgt>
<wgt id='eftrwgt99_ctg_0.407_cqq83_-15.227_cqq81_3.076_cqu8_16.069_cqd8_-14.34_ctq8_-10.144_ctu8_-13.132_ctd8_6.768_cqq13_-2.495_cqq11_-6.097_cqu1_-9.127_cqd1_6.952_ctq1_6.568_ctu1_4.211_ctd1_13.935'> +1.5627298e+02 </wgt>
<wgt id='eftrwgt100_ctg_-0.701_cqq83_-0.048_cqq81_-13.163_cqu8_5.634_cqd8_10.956_ctq8_-0.744_ctu8_7.675_ctd8_11.807_cqq13_5.749_cqq11_-2.151_cqu1_8.431_cqd1_-6.532_ctq1_6.71_ctu1_1.894_ctd1_-1.052'> +1.2251239e+02 </wgt>
<wgt id='eftrwgt101_ctg_-0.35_cqq83_14.955_cqq81_13.247_cqu8_12.366_cqd8_-17.494_ctq8_13.947_ctu8_15.163_ctd8_24.316_cqq13_-3.799_cqq11_-3.202_cqu1_6.22_cqd1_12.06_ctq1_-5.011_ctu1_-3.243_ctd1_-4.236'> +5.2772786e+02 </wgt>
<wgt id='eftrwgt102_ctg_0.556_cqq83_-5.267_cqq81_-10.439_cqu8_2.364_cqd8_0.675_ctq8_-12.861_ctu8_-7.633_ctd8_-19.227_cqq13_7.964_cqq11_-4.314_cqu1_-5.928_cqd1_-4.03_ctq1_5.914_ctu1_5.907_ctd1_11.347'> +1.4401517e+02 </wgt>
<wgt id='eftrwgt103_ctg_0.125_cqq83_-12.646_cqq81_10.46_cqu8_18.952_cqd8_-13.688_ctq8_-9.243_ctu8_-14.143_ctd8_-9.888_cqq13_-8.119_cqq11_3.122_cqu1_8.657_cqd1_7.658_ctq1_-7.962_ctu1_3.664_ctd1_-2.552'> +8.5662275e+01 </wgt>
<wgt id='eftrwgt104_ctg_-0.763_cqq83_-3.804_cqq81_11.607_cqu8_-13.419_cqd8_14.176_ctq8_-9.066_ctu8_-15.02_ctd8_-4.358_cqq13_-1.193_cqq11_-6.481_cqu1_4.998_cqd1_-9.789_ctq1_1.777_ctu1_10.322_ctd1_2.64'> +2.9292660e+02 </wgt>
<wgt id='eftrwgt105_ctg_-1.088_cqq83_12.665_cqq81_-11.087_cqu8_18.548_cqd8_-4.797_ctq8_-2.92_ctu8_2.89_ctd8_13.714_cqq13_6.529_cqq11_2.903_cqu1_9.448_cqd1_-11.012_ctq1_-0.553_ctu1_-10.792_ctd1_7.312'> +2.9211934e+02 </wgt>
<wgt id='eftrwgt106_ctg_-0.66_cqq83_13.87_cqq81_-10.837_cqu8_-12.598_cqd8_7.858_ctq8_-12.118_ctu8_-7.151_ctd8_16.078_cqq13_4.226_cqq11_0.29_cqu1_-10.828_cqd1_12.788_ctq1_7.2_ctu1_2.803_ctd1_-12.185'> +5.8972651e+01 </wgt>
<wgt id='eftrwgt107_ctg_0.987_cqq83_4.124_cqq81_-7.722_cqu8_-17.904_cqd8_-9.465_ctq8_-8.335_ctu8_11.217_ctd8_22.691_cqq13_-5.276_cqq11_2.989_cqu1_7.593_cqd1_-5.045_ctq1_1.607_ctu1_3.552_ctd1_13.817'> +1.1591750e+01 </wgt>
<wgt id='eftrwgt108_ctg_-0.161_cqq83_-2.662_cqq81_-3.151_cqu8_9.405_cqd8_-12.787_ctq8_6.797_ctu8_12.29_ctd8_-20.381_cqq13_6.286_cqq11_-1.665_cqu1_-10.66_cqd1_13.551_ctq1_-0.592_ctu1_-10.77_ctd1_-11.103'> +1.0503099e+02 </wgt>
<wgt id='eftrwgt109_ctg_-0.866_cqq83_17.321_cqq81_-1.402_cqu8_15.303_cqd8_-9.712_ctq8_-2.135_ctu8_4.236_ctd8_-2.625_cqq13_6.154_cqq11_-5.703_cqu1_2.095_cqd1_6.678_ctq1_-8.391_ctu1_-3.925_ctd1_1.624'> +2.7424059e+01 </wgt>
<wgt id='eftrwgt110_ctg_0.155_cqq83_-16.958_cqq81_-11.926_cqu8_-4.429_cqd8_12.271_ctq8_12.349_ctu8_9.754_ctd8_-5.943_cqq13_1.387_cqq11_-2.925_cqu1_8.241_cqd1_-0.988_ctq1_8.274_ctu1_-10.609_ctd1_-7.304'> +5.1607256e+01 </wgt>
<wgt id='eftrwgt111_ctg_-1.065_cqq83_14.73_cqq81_-1.172_cqu8_-15.353_cqd8_0.237_ctq8_10.108_ctu8_4.492_ctd8_24.01_cqq13_-1.328_cqq11_0.667_cqu1_-2.509_cqd1_0.719_ctq1_0.384_ctu1_-8.496_ctd1_-3.168'> +3.7832033e+01 </wgt>
<wgt id='eftrwgt112_ctg_0.963_cqq83_-9.182_cqq81_0.049_cqu8_8.605_cqd8_-14.263_ctq8_8.142_ctu8_-8.43_ctd8_-11.958_cqq13_-2.649_cqq11_1.046_cqu1_6.616_cqd1_7.998_ctq1_1.189_ctu1_-6.255_ctd1_6.95'> +1.3298541e+00 </wgt>
<wgt id='eftrwgt113_ctg_1.026_cqq83_-11.499_cqq81_-5.535_cqu8_17.173_cqd8_3.883_ctq8_-9.651_ctu8_-11.427_ctd8_18.837_cqq13_6.015_cqq11_6.509_cqu1_10.344_cqd1_-2.658_ctq1_-2.985_ctu1_-3.104_ctd1_9.041'> +8.2591977e+02 </wgt>
<wgt id='eftrwgt114_ctg_1.167_cqq83_14.15_cqq81_-2.248_cqu8_-3.57_cqd8_15.163_ctq8_-12.657_ctu8_5.129_ctd8_6.614_cqq13_-6.863_cqq11_-3.391_cqu1_-0.777_cqd1_-2.994_ctq1_1.952_ctu1_-7.447_ctd1_11.847'> +5.4466407e+02 </wgt>
<wgt id='eftrwgt115_ctg_0.982_cqq83_-16.13_cqq81_-2.864_cqu8_-3.251_cqd8_13.648_ctq8_-3.377_ctu8_-15.255_ctd8_-20.505_cqq13_6.864_cqq11_6.065_cqu1_1.403_cqd1_13.412_ctq1_6.891_ctu1_-5.305_ctd1_6.959'> +9.2711578e+02 </wgt>
<wgt id='eftrwgt116_ctg_0.484_cqq83_-5.877_cqq81_-0.844_cqu8_-8.226_cqd8_-12.543_ctq8_-7.938_ctu8_-14.308_ctd8_-16.759_cqq13_3.295_cqq11_-4.935_cqu1_1.553_cqd1_-2.747_ctq1_1.896_ctu1_-2.598_ctd1_1.468'> +1.9630255e+00 </wgt>
<wgt id='eftrwgt117_ctg_-0.766_cqq83_13.005_cqq81_4.278_cqu8_-5.789_cqd8_-2.642_ctq8_1.928_ctu8_-17.627_ctd8_13.206_cqq13_-3.352_cqq11_-4.623_cqu1_1.281_cqd1_-0.353_ctq1_-7.888_ctu1_-2.739_ctd1_-3.691'> +4.4866071e+02 </wgt>
<wgt id='eftrwgt118_ctg_-0.026_cqq83_16.863_cqq81_-3.657_cqu8_-14.653_cqd8_19.452_ctq8_-11.093_ctu8_7.169_ctd8_12.713_cqq13_2.219_cqq11_6.829_cqu1_-1.47_cqd1_13.329_ctq1_-8.726_ctu1_4.506_ctd1_-6.731'> +1.5848682e+02 </wgt>
<wgt id='eftrwgt119_ctg_-0.927_cqq83_14.324_cqq81_12.494_cqu8_-15.766_cqd8_-22.63_ctq8_7.771_ctu8_17.012_ctd8_-4.27_cqq13_-4.263_cqq11_7.096_cqu1_5.583_cqd1_7.465_ctq1_3.841_ctu1_9.204_ctd1_12.312'> +2.5715234e+01 </wgt>
<wgt id='eftrwgt120_ctg_-1.301_cqq83_2.61_cqq81_-0.228_cqu8_-13.019_cqd8_-7.21_ctq8_-10.88_ctu8_-12.7_ctd8_-9.515_cqq13_3.421_cqq11_-0.285_cqu1_-1.252_cqd1_-3.317_ctq1_7.885_ctu1_3.534_ctd1_11.001'> +2.8253012e+01 </wgt>
<wgt id='eftrwgt121_ctg_0.544_cqq83_-11.95_cqq81_-0.044_cqu8_-3.43_cqd8_-3.87_ctq8_-7.539_ctu8_-14.796_ctd8_-19.179_cqq13_3.035_cqq11_-7.307_cqu1_1.661_cqd1_-9.45_ctq1_-2.9_ctu1_7.446_ctd1_-4.846'> +2.3902814e+01 </wgt>
<wgt id='eftrwgt122_ctg_0.077_cqq83_12.997_cqq81_8.942_cqu8_-12.333_cqd8_-21.55_ctq8_8.94_ctu8_12.874_ctd8_-23.03_cqq13_7.882_cqq11_-0.681_cqu1_1.4_cqd1_6.361_ctq1_-0.884_ctu1_-0.375_ctd1_1.214'> +5.1124979e+01 </wgt>
<wgt id='eftrwgt123_ctg_-1.357_cqq83_9.311_cqq81_-6.821_cqu8_-3.271_cqd8_-16.074_ctq8_9.326_ctu8_14.404_ctd8_-2.447_cqq13_3.173_cqq11_-3.404_cqu1_2.525_cqd1_5.494_ctq1_-7.91_ctu1_-0.974_ctd1_4.439'> +3.4736158e+00 </wgt>
<wgt id='eftrwgt124_ctg_-1.223_cqq83_-12.321_cqq81_-7.848_cqu8_-2.265_cqd8_-5.02_ctq8_-13.565_ctu8_-9.074_ctd8_2.046_cqq13_-4.347_cqq11_5.557_cqu1_1.21_cqd1_-2.046_ctq1_-6.903_ctu1_-4.355_ctd1_2.297'> +7.4891456e+01 </wgt>
<wgt id='eftrwgt125_ctg_0.961_cqq83_6.0_cqq81_5.561_cqu8_-3.626_cqd8_-19.356_ctq8_-2.864_ctu8_-0.243_ctd8_23.255_cqq13_-8.112_cqq11_-5.996_cqu1_9.108_cqd1_-10.685_ctq1_-6.426_ctu1_-1.269_ctd1_3.35'> +9.5124498e+02 </wgt>
<wgt id='eftrwgt126_ctg_0.285_cqq83_-16.325_cqq81_0.476_cqu8_-16.347_cqd8_22.521_ctq8_-0.468_ctu8_-2.288_ctd8_22.57_cqq13_-7.864_cqq11_-2.689_cqu1_6.85_cqd1_8.701_ctq1_6.612_ctu1_10.799_ctd1_5.338'> +2.2908329e+02 </wgt>
<wgt id='eftrwgt127_ctg_-1.378_cqq83_-17.314_cqq81_-12.704_cqu8_-6.427_cqd8_-12.718_ctq8_4.311_ctu8_-7.334_ctd8_-24.506_cqq13_-8.01_cqq11_5.874_cqu1_0.468_cqd1_8.191_ctq1_-0.277_ctu1_8.517_ctd1_-7.478'> +4.2221403e+01 </wgt>
<wgt id='eftrwgt128_ctg_1.18_cqq83_-1.471_cqq81_2.433_cqu8_10.198_cqd8_23.306_ctq8_-12.125_ctu8_16.403_ctd8_18.18_cqq13_7.781_cqq11_-2.869_cqu1_-7.593_cqd1_-6.942_ctq1_0.572_ctu1_3.932_ctd1_-1.468'> +7.6848558e+01 </wgt>
<wgt id='eftrwgt129_ctg_0.941_cqq83_-4.592_cqq81_6.49_cqu8_-5.317_cqd8_16.947_ctq8_12.635_ctu8_-5.132_ctd8_22.403_cqq13_2.333_cqq11_-2.444_cqu1_7.188_cqd1_-3.684_ctq1_-5.675_ctu1_-4.027_ctd1_-1.358'> +2.1967547e+00 </wgt>
<wgt id='eftrwgt130_ctg_-0.208_cqq83_-17.622_cqq81_-2.397_cqu8_15.786_cqd8_15.249_ctq8_-1.44_ctu8_10.097_ctd8_-10.056_cqq13_-3.196_cqq11_4.986_cqu1_-0.332_cqd1_-13.619_ctq1_2.563_ctu1_1.892_ctd1_2.648'> +9.7131269e+01 </wgt>
<wgt id='eftrwgt131_ctg_1.247_cqq83_-17.63_cqq81_-10.818_cqu8_5.208_cqd8_0.681_ctq8_12.537_ctu8_-14.866_ctd8_3.091_cqq13_2.337_cqq11_-5.924_cqu1_5.379_cqd1_5.986_ctq1_-5.666_ctu1_10.553_ctd1_1.395'> +1.6154725e+01 </wgt>
<wgt id='eftrwgt132_ctg_-0.801_cqq83_7.262_cqq81_9.212_cqu8_-8.732_cqd8_-8.091_ctq8_-1.906_ctu8_3.948_ctd8_13.123_cqq13_2.692_cqq11_8.195_cqu1_0.96_cqd1_-1.571_ctq1_5.243_ctu1_-1.861_ctd1_-9.371'> +2.4161709e+02 </wgt>
<wgt id='eftrwgt133_ctg_-1.257_cqq83_16.117_cqq81_-9.715_cqu8_-7.571_cqd8_1.07_ctq8_2.477_ctu8_-7.002_ctd8_13.477_cqq13_-0.711_cqq11_7.763_cqu1_-6.041_cqd1_-7.251_ctq1_-2.998_ctu1_-2.904_ctd1_-12.567'> +1.2134780e+02 </wgt>
<wgt id='eftrwgt134_ctg_1.354_cqq83_-7.657_cqq81_-1.021_cqu8_-16.291_cqd8_1.184_ctq8_-2.275_ctu8_16.917_ctd8_-5.942_cqq13_5.969_cqq11_3.289_cqu1_-10.263_cqd1_4.064_ctq1_8.35_ctu1_-0.11_ctd1_0.257'> +4.0947002e+02 </wgt>
<wgt id='eftrwgt135_ctg_-0.715_cqq83_-9.614_cqq81_-10.763_cqu8_9.461_cqd8_21.044_ctq8_0.83_ctu8_16.276_ctd8_17.397_cqq13_7.427_cqq11_-7.592_cqu1_5.575_cqd1_-12.777_ctq1_0.413_ctu1_-0.337_ctd1_5.614'> +4.1281925e+01 </wgt>
<wgt id='eftrwgt136_ctg_1.148_cqq83_9.105_cqq81_7.25_cqu8_15.489_cqd8_-14.113_ctq8_-1.534_ctu8_-4.722_ctd8_-14.085_cqq13_7.64_cqq11_5.644_cqu1_6.289_cqd1_-3.464_ctq1_-4.467_ctu1_10.661_ctd1_-10.103'> +3.8644743e+02 </wgt>
<wgt id='eftrwgt137_ctg_0.519_cqq83_-3.88_cqq81_5.428_cqu8_-11.688_cqd8_12.458_ctq8_5.584_ctu8_4.192_ctd8_-4.494_cqq13_0.22_cqq11_6.429_cqu1_0.379_cqd1_-2.464_ctq1_3.48_ctu1_8.707_ctd1_10.184'> +1.4132228e+02 </wgt>
<wgt id='eftrwgt138_ctg_0.044_cqq83_15.014_cqq81_-2.24_cqu8_-0.07_cqd8_15.723_ctq8_4.233_ctu8_15.378_ctd8_22.326_cqq13_5.742_cqq11_-7.973_cqu1_5.127_cqd1_8.3_ctq1_-2.237_ctu1_-6.818_ctd1_9.184'> +7.7831827e+01 </wgt>
<wgt id='eftrwgt139_ctg_0.536_cqq83_3.108_cqq81_-2.815_cqu8_17.298_cqd8_-20.517_ctq8_-0.558_ctu8_5.522_ctd8_9.105_cqq13_7.706_cqq11_-1.121_cqu1_6.904_cqd1_-8.677_ctq1_0.168_ctu1_4.991_ctd1_3.884'> +1.4576106e+02 </wgt>
<wgt id='eftrwgt140_ctg_-1.222_cqq83_14.489_cqq81_7.936_cqu8_-5.001_cqd8_-7.099_ctq8_0.704_ctu8_-16.077_ctd8_15.282_cqq13_3.777_cqq11_4.884_cqu1_-3.897_cqd1_-3.233_ctq1_-0.56_ctu1_1.21_ctd1_-11.922'> +9.3003219e+01 </wgt>
<wgt id='eftrwgt141_ctg_-0.595_cqq83_-16.264_cqq81_7.534_cqu8_-4.512_cqd8_17.409_ctq8_3.217_ctu8_-8.193_ctd8_8.464_cqq13_-7.686_cqq11_-1.06_cqu1_4.135_cqd1_9.485_ctq1_-2.481_ctu1_4.42_ctd1_3.636'> +2.0090136e+02 </wgt>
<wgt id='eftrwgt142_ctg_1.208_cqq83_4.059_cqq81_6.781_cqu8_-5.717_cqd8_-21.408_ctq8_0.083_ctu8_14.943_ctd8_11.388_cqq13_0.694_cqq11_-5.103_cqu1_-7.402_cqd1_13.43_ctq1_3.406_ctu1_2.945_ctd1_5.188'> +1.4498448e+02 </wgt>
<wgt id='eftrwgt143_ctg_0.787_cqq83_2.859_cqq81_-12.404_cqu8_17.905_cqd8_18.147_ctq8_5.594_ctu8_13.171_ctd8_-8.3_cqq13_-1.709_cqq11_3.715_cqu1_-2.267_cqd1_0.319_ctq1_-2.513_ctu1_-6.093_ctd1_0.66'> +4.1818764e+01 </wgt>
<wgt id='eftrwgt144_ctg_0.369_cqq83_12.119_cqq81_10.451_cqu8_-4.308_cqd8_10.751_ctq8_2.903_ctu8_-16.453_ctd8_12.168_cqq13_-7.8_cqq11_-4.495_cqu1_-7.968_cqd1_-11.778_ctq1_-0.673_ctu1_9.838_ctd1_7.574'> +9.4938753e+02 </wgt>
<wgt id='eftrwgt145_ctg_-0.314_cqq83_-7.538_cqq81_9.523_cqu8_-0.965_cqd8_7.921_ctq8_-3.669_ctu8_-17.137_ctd8_13.302_cqq13_-0.272_cqq11_-1.659_cqu1_-4.888_cqd1_2.565_ctq1_-4.075_ctu1_7.665_ctd1_4.628'> +2.1837438e+01 </wgt>
<wgt id='eftrwgt146_ctg_-0.028_cqq83_17.018_cqq81_4.288_cqu8_2.423_cqd8_9.91_ctq8_-1.803_ctu8_-7.374_ctd8_-22.743_cqq13_1.412_cqq11_1.518_cqu1_-5.031_cqd1_4.621_ctq1_-2.805_ctu1_-7.971_ctd1_2.504'> +1.2073369e+01 </wgt>
<wgt id='eftrwgt147_ctg_0.512_cqq83_9.531_cqq81_-2.016_cqu8_15.155_cqd8_-1.954_ctq8_-13.237_ctu8_1.868_ctd8_5.908_cqq13_-7.773_cqq11_7.257_cqu1_4.489_cqd1_2.963_ctq1_-3.777_ctu1_5.458_ctd1_-6.432'> +1.4889643e+01 </wgt>
<wgt id='eftrwgt148_ctg_-0.482_cqq83_17.097_cqq81_10.457_cqu8_-6.705_cqd8_-13.185_ctq8_-4.371_ctu8_14.509_ctd8_-13.32_cqq13_1.822_cqq11_0.354_cqu1_7.002_cqd1_10.541_ctq1_5.822_ctu1_5.744_ctd1_-13.15'> +3.6611081e+01 </wgt>
<wgt id='eftrwgt149_ctg_-0.905_cqq83_0.86_cqq81_-13.515_cqu8_11.771_cqd8_-1.866_ctq8_13.439_ctu8_0.144_ctd8_13.675_cqq13_-5.569_cqq11_-7.731_cqu1_1.84_cqd1_3.468_ctq1_-5.507_ctu1_1.982_ctd1_-13.061'> +4.7170110e+02 </wgt>
<wgt id='eftrwgt150_ctg_0.0_cqq83_-11.426_cqq81_-6.524_cqu8_-16.088_cqd8_-21.27_ctq8_10.524_ctu8_14.233_ctd8_17.255_cqq13_4.89_cqq11_-4.416_cqu1_4.918_cqd1_-11.767_ctq1_1.268_ctu1_3.231_ctd1_-6.475'> +4.4161450e+01 </wgt>
<wgt id='eftrwgt151_ctg_-0.918_cqq83_-17.499_cqq81_-6.826_cqu8_10.016_cqd8_16.971_ctq8_1.599_ctu8_16.783_ctd8_5.312_cqq13_-2.351_cqq11_-1.209_cqu1_0.269_cqd1_-8.867_ctq1_-7.829_ctu1_-1.326_ctd1_-0.175'> +1.0403873e+01 </wgt>
<wgt id='eftrwgt152_ctg_-0.246_cqq83_8.939_cqq81_-6.847_cqu8_-18.344_cqd8_21.999_ctq8_6.606_ctu8_9.509_ctd8_17.198_cqq13_-1.071_cqq11_7.466_cqu1_-6.387_cqd1_-1.912_ctq1_8.495_ctu1_-3.261_ctd1_8.87'> +1.3083138e+02 </wgt>
<wgt id='eftrwgt153_ctg_0.903_cqq83_-16.714_cqq81_4.491_cqu8_13.339_cqd8_3.836_ctq8_10.658_ctu8_1.169_ctd8_-12.868_cqq13_-4.118_cqq11_5.124_cqu1_5.936_cqd1_-5.521_ctq1_-6.529_ctu1_-3.471_ctd1_-8.961'> +2.8616539e+01 </wgt>
<wgt id='eftrwgt154_ctg_-0.773_cqq83_-11.295_cqq81_11.399_cqu8_12.409_cqd8_-7.958_ctq8_-6.63_ctu8_17.921_ctd8_-4.387_cqq13_-1.075_cqq11_-3.648_cqu1_0.733_cqd1_9.925_ctq1_-5.979_ctu1_6.286_ctd1_-8.945'> +8.7829194e+01 </wgt>
<wgt id='eftrwgt155_ctg_-1.155_cqq83_10.436_cqq81_11.789_cqu8_11.375_cqd8_0.293_ctq8_-12.103_ctu8_-1.324_ctd8_-13.307_cqq13_0.647_cqq11_-1.508_cqu1_4.529_cqd1_-4.847_ctq1_-1.864_ctu1_7.458_ctd1_-2.56'> +8.8143616e+01 </wgt>
<wgt id='eftrwgt156_ctg_1.116_cqq83_-1.502_cqq81_7.154_cqu8_-6.575_cqd8_-19.147_ctq8_-2.196_ctu8_15.471_ctd8_-13.501_cqq13_6.413_cqq11_3.8_cqu1_-1.927_cqd1_3.978_ctq1_3.939_ctu1_-0.696_ctd1_7.298'> +3.0252749e+02 </wgt>
<wgt id='eftrwgt157_ctg_-0.739_cqq83_2.709_cqq81_13.851_cqu8_9.744_cqd8_-15.601_ctq8_-3.406_ctu8_0.534_ctd8_13.826_cqq13_-5.94_cqq11_0.154_cqu1_4.119_cqd1_-0.999_ctq1_7.262_ctu1_1.145_ctd1_4.349'> +2.6504019e+02 </wgt>
<wgt id='eftrwgt158_ctg_-0.16_cqq83_8.752_cqq81_-10.353_cqu8_13.772_cqd8_-19.74_ctq8_1.97_ctu8_-17.022_ctd8_-15.946_cqq13_4.368_cqq11_-3.748_cqu1_-3.331_cqd1_1.681_ctq1_0.02_ctu1_3.467_ctd1_11.988'> +1.9795548e+00 </wgt>
<wgt id='eftrwgt159_ctg_-0.773_cqq83_-5.383_cqq81_11.182_cqu8_14.253_cqd8_22.486_ctq8_4.123_ctu8_16.717_ctd8_16.197_cqq13_7.633_cqq11_3.65_cqu1_3.518_cqd1_4.557_ctq1_0.213_ctu1_-8.115_ctd1_5.813'> +3.7093873e+02 </wgt>
<wgt id='eftrwgt160_ctg_-0.954_cqq83_13.029_cqq81_10.509_cqu8_2.914_cqd8_-7.008_ctq8_3.519_ctu8_-4.882_ctd8_-8.587_cqq13_-4.654_cqq11_6.741_cqu1_-8.034_cqd1_8.536_ctq1_7.776_ctu1_8.243_ctd1_-6.062'> +2.3649549e+01 </wgt>
<wgt id='eftrwgt161_ctg_0.783_cqq83_-0.823_cqq81_-10.667_cqu8_6.458_cqd8_-6.599_ctq8_5.205_ctu8_-17.575_ctd8_-8.783_cqq13_-6.096_cqq11_-7.308_cqu1_-4.219_cqd1_4.937_ctq1_-6.352_ctu1_4.953_ctd1_3.017'> +4.9759881e+02 </wgt>
<wgt id='eftrwgt162_ctg_-0.671_cqq83_16.815_cqq81_-12.317_cqu8_1.448_cqd8_10.899_ctq8_4.606_ctu8_-11.122_ctd8_-10.201_cqq13_4.82_cqq11_3.575_cqu1_-8.572_cqd1_11.857_ctq1_5.276_ctu1_-9.587_ctd1_8.531'> +2.0690503e+02 </wgt>
<wgt id='eftrwgt163_ctg_1.242_cqq83_16.122_cqq81_-8.636_cqu8_-5.852_cqd8_7.335_ctq8_-5.7_ctu8_-13.545_ctd8_24.321_cqq13_5.114_cqq11_-6.63_cqu1_-4.255_cqd1_8.437_ctq1_-6.875_ctu1_9.128_ctd1_2.843'> +3.4355386e+01 </wgt>
<wgt id='eftrwgt164_ctg_1.092_cqq83_-5.055_cqq81_-8.599_cqu8_4.203_cqd8_-7.68_ctq8_-11.588_ctu8_0.276_ctd8_17.336_cqq13_-7.727_cqq11_-5.834_cqu1_-7.894_cqd1_-13.963_ctq1_8.207_ctu1_2.956_ctd1_-11.592'> +4.5571200e+02 </wgt>
<wgt id='eftrwgt165_ctg_0.595_cqq83_4.636_cqq81_-0.11_cqu8_-0.581_cqd8_-20.832_ctq8_-0.558_ctu8_4.659_ctd8_14.601_cqq13_-7.948_cqq11_3.039_cqu1_4.976_cqd1_-0.906_ctq1_-5.244_ctu1_-2.665_ctd1_-11.849'> +1.2532730e+02 </wgt>
<wgt id='eftrwgt166_ctg_1.216_cqq83_5.127_cqq81_1.484_cqu8_12.31_cqd8_15.332_ctq8_-1.18_ctu8_2.062_ctd8_7.64_cqq13_-3.138_cqq11_3.748_cqu1_-2.564_cqd1_-4.289_ctq1_4.03_ctu1_7.302_ctd1_-7.704'> +2.4234070e+00 </wgt>
<wgt id='eftrwgt167_ctg_1.033_cqq83_5.72_cqq81_-1.985_cqu8_-0.401_cqd8_0.76_ctq8_-4.788_ctu8_5.904_ctd8_-7.804_cqq13_5.806_cqq11_-6.292_cqu1_-1.952_cqd1_-8.265_ctq1_2.846_ctu1_-6.057_ctd1_7.749'> +5.6221690e+00 </wgt>
<wgt id='eftrwgt168_ctg_-0.37_cqq83_17.55_cqq81_9.651_cqu8_-15.831_cqd8_-2.866_ctq8_-6.609_ctu8_-14.397_ctd8_5.753_cqq13_5.663_cqq11_-8.112_cqu1_-9.915_cqd1_6.099_ctq1_-0.019_ctu1_-1.021_ctd1_-5.252'> +1.9446326e+02 </wgt>
<wgt id='eftrwgt169_ctg_-1.172_cqq83_17.994_cqq81_-4.282_cqu8_-10.241_cqd8_-2.149_ctq8_-9.811_ctu8_-0.052_ctd8_20.563_cqq13_0.796_cqq11_-3.46_cqu1_8.811_cqd1_-11.665_ctq1_2.613_ctu1_-2.034_ctd1_-11.62'> +9.2749834e+01 </wgt>
<wgt id='eftrwgt170_ctg_-1.173_cqq83_-5.111_cqq81_9.87_cqu8_12.84_cqd8_15.747_ctq8_6.145_ctu8_16.166_ctd8_21.901_cqq13_1.621_cqq11_-4.815_cqu1_-6.967_cqd1_-9.672_ctq1_8.708_ctu1_-3.905_ctd1_5.596'> +5.6757902e+01 </wgt>
<wgt id='eftrwgt171_ctg_-0.487_cqq83_-3.728_cqq81_-2.089_cqu8_-8.617_cqd8_-3.165_ctq8_5.221_ctu8_-6.935_ctd8_-10.922_cqq13_2.93_cqq11_-3.943_cqu1_0.026_cqd1_10.454_ctq1_1.412_ctu1_-4.837_ctd1_4.419'> +4.9929637e-01 </wgt>
<wgt id='eftrwgt172_ctg_0.395_cqq83_8.99_cqq81_-3.002_cqu8_-13.401_cqd8_-8.393_ctq8_6.268_ctu8_10.287_ctd8_3.578_cqq13_-0.326_cqq11_0.491_cqu1_-1.452_cqd1_0.292_ctq1_2.055_ctu1_8.333_ctd1_-11.0'> +4.4013481e+00 </wgt>
<wgt id='eftrwgt173_ctg_-0.268_cqq83_-9.609_cqq81_-10.088_cqu8_-10.258_cqd8_2.411_ctq8_-9.923_ctu8_-12.813_ctd8_-11.549_cqq13_-0.115_cqq11_0.881_cqu1_3.83_cqd1_-7.017_ctq1_-5.831_ctu1_5.916_ctd1_9.799'> +5.8918122e+01 </wgt>
<wgt id='eftrwgt174_ctg_0.0_cqq83_14.255_cqq81_-3.162_cqu8_7.632_cqd8_8.455_ctq8_-10.706_ctu8_12.248_ctd8_-7.818_cqq13_-7.674_cqq11_3.169_cqu1_-10.606_cqd1_10.997_ctq1_7.461_ctu1_-1.024_ctd1_-12.78'> +1.4519267e+02 </wgt>
<wgt id='eftrwgt175_ctg_0.97_cqq83_0.362_cqq81_12.475_cqu8_-6.155_cqd8_12.941_ctq8_-11.631_ctu8_12.793_ctd8_5.998_cqq13_5.415_cqq11_3.61_cqu1_3.086_cqd1_11.222_ctq1_-7.83_ctu1_7.604_ctd1_-6.316'> +1.6018706e+02 </wgt>
<wgt id='eftrwgt176_ctg_-0.671_cqq83_9.217_cqq81_12.675_cqu8_-5.504_cqd8_11.909_ctq8_-13.928_ctu8_3.526_ctd8_12.153_cqq13_6.419_cqq11_-4.462_cqu1_-8.472_cqd1_-6.853_ctq1_-5.497_ctu1_9.273_ctd1_7.938'> +2.2410539e+01 </wgt>
<wgt id='eftrwgt177_ctg_-0.305_cqq83_7.149_cqq81_-4.524_cqu8_-16.678_cqd8_-16.144_ctq8_5.076_ctu8_-17.746_ctd8_16.893_cqq13_4.267_cqq11_2.618_cqu1_4.353_cqd1_8.975_ctq1_4.66_ctu1_3.456_ctd1_-10.007'> +1.4576209e+02 </wgt>
<wgt id='eftrwgt178_ctg_-0.022_cqq83_13.793_cqq81_-0.578_cqu8_13.877_cqd8_-10.596_ctq8_10.476_ctu8_5.651_ctd8_8.781_cqq13_7.781_cqq11_-0.157_cqu1_-3.425_cqd1_10.096_ctq1_-6.687_ctu1_-1.677_ctd1_2.543'> +9.8085785e+01 </wgt>
<wgt id='eftrwgt179_ctg_0.497_cqq83_-6.916_cqq81_13.035_cqu8_-5.975_cqd8_12.419_ctq8_5.679_ctu8_-2.58_ctd8_-17.339_cqq13_-3.741_cqq11_-1.097_cqu1_-5.551_cqd1_-0.983_ctq1_-5.692_ctu1_4.263_ctd1_4.456'> +1.3524169e+02 </wgt>
<wgt id='sm_point'> +1.2135247e-01 </wgt>
<wgt id='1001'> +1.1579678e+02 </wgt>
<wgt id='1002'> +7.9569649e+01 </wgt>
<wgt id='1003'> +7.9569649e+01 </wgt>
<wgt id='1004'> +9.8623060e+01 </wgt>
<wgt id='1005'> +6.2996458e+01 </wgt>
<wgt id='1006'> +9.6827973e+01 </wgt>
<wgt id='1007'> +6.8181609e+01 </wgt>
<wgt id='1008'> +6.8181609e+01 </wgt>
<wgt id='1009'> +8.3377007e+01 </wgt>
<wgt id='1010'> +5.4699996e+01 </wgt>
<wgt id='1011'> +1.4106113e+02 </wgt>
<wgt id='1012'> +9.4119501e+01 </wgt>
<wgt id='1013'> +9.4119501e+01 </wgt>
<wgt id='1014'> +1.1854997e+02 </wgt>
<wgt id='1015'> +7.3363654e+01 </wgt>
<wgt id='1016'> +1.1044998e+02 </wgt>
<wgt id='1017'> +7.6009396e+01 </wgt>
<wgt id='1018'> +7.6009396e+01 </wgt>
<wgt id='1019'> +9.4119501e+01 </wgt>
<wgt id='1020'> +6.0254905e+01 </wgt>
<wgt id='1021'> +9.2357038e+01 </wgt>
<wgt id='1022'> +6.5130901e+01 </wgt>
<wgt id='1023'> +6.5130901e+01 </wgt>
<wgt id='1024'> +7.9569649e+01 </wgt>
<wgt id='1025'> +5.2319498e+01 </wgt>
<wgt id='1026'> +1.3454777e+02 </wgt>
<wgt id='1027'> +8.9908232e+01 </wgt>
<wgt id='1028'> +8.9908232e+01 </wgt>
<wgt id='1029'> +1.1313646e+02 </wgt>
<wgt id='1030'> +7.0170930e+01 </wgt>
<wgt id='1031'> +1.2307267e+02 </wgt>
<wgt id='1032'> +8.3377007e+01 </wgt>
<wgt id='1033'> +8.3377007e+01 </wgt>
<wgt id='1034'> +1.0377275e+02 </wgt>
<wgt id='1035'> +6.5934404e+01 </wgt>
<wgt id='1036'> +1.0291199e+02 </wgt>
<wgt id='1037'> +7.1444056e+01 </wgt>
<wgt id='1038'> +7.1444056e+01 </wgt>
<wgt id='1039'> +8.7730607e+01 </wgt>
<wgt id='1040'> +5.7251022e+01 </wgt>
<wgt id='1041'> +1.4992447e+02 </wgt>
<wgt id='1042'> +9.8623060e+01 </wgt>
<wgt id='1043'> +9.8623060e+01 </wgt>
<wgt id='1044'> +1.2474015e+02 </wgt>
<wgt id='1045'> +7.6785091e+01 </wgt>
<wgt id='1046'> +1.2962989e+02 </wgt>
<wgt id='1047'> +1.0580674e+02 </wgt>
<wgt id='1048'> +1.1579678e+02 </wgt>
<wgt id='1049'> +1.1559388e+02 </wgt>
<wgt id='1050'> +1.1593671e+02 </wgt>
<wgt id='1051'> +1.1622892e+02 </wgt>
<wgt id='1052'> +1.1608185e+02 </wgt>
<wgt id='1053'> +1.1520614e+02 </wgt>
<wgt id='1054'> +1.1571059e+02 </wgt>
<wgt id='1055'> +1.1504876e+02 </wgt>
<wgt id='1056'> +1.1466683e+02 </wgt>
<wgt id='1057'> +1.1638015e+02 </wgt>
<wgt id='1058'> +1.1555203e+02 </wgt>
<wgt id='1059'> +1.1661155e+02 </wgt>
<wgt id='1060'> +1.1549370e+02 </wgt>
<wgt id='1061'> +1.1677444e+02 </wgt>
<wgt id='1062'> +1.1518852e+02 </wgt>
<wgt id='1063'> +1.1695395e+02 </wgt>
<wgt id='1064'> +1.1537443e+02 </wgt>
<wgt id='1065'> +1.1583979e+02 </wgt>
<wgt id='1066'> +1.1449499e+02 </wgt>
<wgt id='1067'> +1.1606139e+02 </wgt>
<wgt id='1068'> +1.1547253e+02 </wgt>
<wgt id='1069'> +1.1488510e+02 </wgt>
<wgt id='1070'> +1.1629437e+02 </wgt>
<wgt id='1071'> +1.1567300e+02 </wgt>
<wgt id='1072'> +1.1511225e+02 </wgt>
<wgt id='1073'> +1.1601636e+02 </wgt>
<wgt id='1074'> +1.1618483e+02 </wgt>
<wgt id='1075'> +1.1617212e+02 </wgt>
<wgt id='1076'> +1.1569978e+02 </wgt>
<wgt id='1077'> +1.1766648e+02 </wgt>
<wgt id='1078'> +1.1605022e+02 </wgt>
<wgt id='1079'> +1.1748145e+02 </wgt>
<wgt id='1080'> +1.1567777e+02 </wgt>
<wgt id='1081'> +1.1610926e+02 </wgt>
<wgt id='1082'> +1.1637865e+02 </wgt>
<wgt id='1083'> +1.1532977e+02 </wgt>
<wgt id='1084'> +1.1548727e+02 </wgt>
<wgt id='1085'> +1.1632535e+02 </wgt>
<wgt id='1086'> +1.1584547e+02 </wgt>
<wgt id='1087'> +1.1584573e+02 </wgt>
<wgt id='1088'> +1.1573506e+02 </wgt>
<wgt id='1089'> +1.1525412e+02 </wgt>
<wgt id='1090'> +1.1571476e+02 </wgt>
<wgt id='1091'> +1.1599798e+02 </wgt>
<wgt id='1092'> +1.1546777e+02 </wgt>
<wgt id='1093'> +1.1589172e+02 </wgt>
<wgt id='1094'> +1.1592106e+02 </wgt>
<wgt id='1095'> +1.1541872e+02 </wgt>
<wgt id='1096'> +1.1634907e+02 </wgt>
<wgt id='1097'> +1.1484449e+02 </wgt>
<wgt id='1098'> +1.1606460e+02 </wgt>
<wgt id='1099'> +1.1591381e+02 </wgt>
<wgt id='1100'> +1.1553341e+02 </wgt>
<wgt id='1101'> +1.1567836e+02 </wgt>
<wgt id='1102'> +1.1585473e+02 </wgt>
<wgt id='1103'> +1.1618443e+02 </wgt>
<wgt id='1104'> +1.1627226e+02 </wgt>
<wgt id='1105'> +1.1599382e+02 </wgt>
<wgt id='1106'> +1.1592257e+02 </wgt>
<wgt id='1107'> +1.1571531e+02 </wgt>
<wgt id='1108'> +1.1612218e+02 </wgt>
<wgt id='1109'> +1.1612017e+02 </wgt>
<wgt id='1110'> +1.1592260e+02 </wgt>
<wgt id='1111'> +1.1532771e+02 </wgt>
<wgt id='1112'> +1.1581923e+02 </wgt>
<wgt id='1113'> +1.1592910e+02 </wgt>
<wgt id='1114'> +1.1610137e+02 </wgt>
<wgt id='1115'> +1.1606454e+02 </wgt>
<wgt id='1116'> +1.1599566e+02 </wgt>
<wgt id='1117'> +1.1563097e+02 </wgt>
<wgt id='1118'> +1.1588835e+02 </wgt>
<wgt id='1119'> +1.1560019e+02 </wgt>
<wgt id='1120'> +1.1556463e+02 </wgt>
<wgt id='1121'> +1.1608183e+02 </wgt>
<wgt id='1122'> +1.1566904e+02 </wgt>
<wgt id='1123'> +1.1585613e+02 </wgt>
<wgt id='1124'> +1.1576372e+02 </wgt>
<wgt id='1125'> +1.1592837e+02 </wgt>
<wgt id='1126'> +1.1584865e+02 </wgt>
<wgt id='1127'> +1.1564210e+02 </wgt>
<wgt id='1128'> +1.1568660e+02 </wgt>
<wgt id='1129'> +1.1578518e+02 </wgt>
<wgt id='1130'> +1.1603619e+02 </wgt>
<wgt id='1131'> +1.1576257e+02 </wgt>
<wgt id='1132'> +1.1595457e+02 </wgt>
<wgt id='1133'> +1.1584486e+02 </wgt>
<wgt id='1134'> +1.1571471e+02 </wgt>
<wgt id='1135'> +1.1604777e+02 </wgt>
<wgt id='1136'> +1.1563843e+02 </wgt>
<wgt id='1137'> +1.1592409e+02 </wgt>
<wgt id='1138'> +1.1565672e+02 </wgt>
<wgt id='1139'> +1.1577982e+02 </wgt>
<wgt id='1140'> +1.1567209e+02 </wgt>
<wgt id='1141'> +1.1594543e+02 </wgt>
<wgt id='1142'> +1.1599686e+02 </wgt>
<wgt id='1143'> +1.1602136e+02 </wgt>
<wgt id='1144'> +1.1596361e+02 </wgt>
<wgt id='1145'> +1.1558088e+02 </wgt>
<wgt id='1146'> +1.1583721e+02 </wgt>
<wgt id='1147'> +1.1596414e+02 </wgt>
<wgt id='1148'> +1.1579678e+02 </wgt>
<wgt id='1149'> +1.1162084e+02 </wgt>
<wgt id='1150'> +1.2048698e+02 </wgt>
<wgt id='1151'> +1.1579678e+02 </wgt>
<wgt id='1152'> +1.2986310e+02 </wgt>
<wgt id='1153'> +1.1678238e+02 </wgt>
<wgt id='1154'> +1.2101557e+02 </wgt>
<wgt id='1155'> +1.1827944e+02 </wgt>
<wgt id='1156'> +1.1450471e+02 </wgt>
<wgt id='1157'> +1.1493453e+02 </wgt>
<wgt id='1158'> +1.1375934e+02 </wgt>
<wgt id='1159'> +1.1582129e+02 </wgt>
<wgt id='1160'> +1.1536825e+02 </wgt>
<wgt id='1161'> +1.0582305e+02 </wgt>
<wgt id='1162'> +1.1616425e+02 </wgt>
<wgt id='1163'> +1.1437558e+02 </wgt>
<wgt id='1164'> +1.1088915e+02 </wgt>
<wgt id='1165'> +1.2014941e+02 </wgt>
<wgt id='1166'> +1.1442300e+02 </wgt>
<wgt id='1167'> +1.1051655e+02 </wgt>
<wgt id='1168'> +1.1841818e+02 </wgt>
<wgt id='1169'> +1.1757029e+02 </wgt>
<wgt id='1170'> +1.1665004e+02 </wgt>
<wgt id='1171'> +1.0753277e+02 </wgt>
<wgt id='1172'> +1.2033057e+02 </wgt>
<wgt id='1173'> +1.2422580e+02 </wgt>
<wgt id='1174'> +1.1825061e+02 </wgt>
<wgt id='1175'> +1.1453368e+02 </wgt>
<wgt id='1176'> +1.1551824e+02 </wgt>
<wgt id='1177'> +1.1790146e+02 </wgt>
<wgt id='1178'> +1.2249534e+02 </wgt>
<wgt id='1179'> +1.1899266e+02 </wgt>
<wgt id='1180'> +1.1200415e+02 </wgt>
<wgt id='1181'> +1.1311713e+02 </wgt>
<wgt id='1182'> +1.2187390e+02 </wgt>
<wgt id='1183'> +1.1311631e+02 </wgt>
<wgt id='1184'> +1.1992738e+02 </wgt>
<wgt id='1185'> +1.1629351e+02 </wgt>
<wgt id='1186'> +1.1766006e+02 </wgt>
<wgt id='1187'> +1.2091986e+02 </wgt>
<wgt id='1188'> +1.1679619e+02 </wgt>
<wgt id='1189'> +1.1300004e+02 </wgt>
<wgt id='1190'> +1.1547225e+02 </wgt>
<wgt id='1191'> +1.1445107e+02 </wgt>
<wgt id='1192'> +1.1829832e+02 </wgt>
<wgt id='1193'> +1.1570689e+02 </wgt>
<wgt id='1194'> +1.2100923e+02 </wgt>
<wgt id='1195'> +1.1813515e+02 </wgt>
<wgt id='1196'> +1.1239898e+02 </wgt>
<wgt id='1197'> +1.1653513e+02 </wgt>
<wgt id='1198'> +1.1557574e+02 </wgt>
<wgt id='1199'> +1.1494830e+02 </wgt>
<wgt id='1200'> +1.1483663e+02 </wgt>
<wgt id='1201'> +1.1330521e+02 </wgt>
<wgt id='1202'> +1.1779264e+02 </wgt>
<wgt id='1203'> +1.1281397e+02 </wgt>
<wgt id='1204'> +1.1508680e+02 </wgt>
<wgt id='1205'> +1.1910806e+02 </wgt>
<wgt id='1206'> +1.2509886e+02 </wgt>
<wgt id='1207'> +1.1700485e+02 </wgt>
<wgt id='1208'> +1.2091904e+02 </wgt>
<wgt id='1209'> +1.2051532e+02 </wgt>
<wgt id='1210'> +1.1482335e+02 </wgt>
<wgt id='1211'> +1.2105953e+02 </wgt>
<wgt id='1212'> +1.1519567e+02 </wgt>
<wgt id='1213'> +1.1393892e+02 </wgt>
<wgt id='1214'> +1.1845747e+02 </wgt>
<wgt id='1215'> +1.1326072e+02 </wgt>
<wgt id='1216'> +1.1613732e+02 </wgt>
<wgt id='1217'> +1.1063949e+02 </wgt>
<wgt id='1218'> +1.1851478e+02 </wgt>
<wgt id='1219'> +1.1363768e+02 </wgt>
<wgt id='1220'> +1.1565694e+02 </wgt>
<wgt id='1221'> +1.1539216e+02 </wgt>
<wgt id='1222'> +1.1670692e+02 </wgt>
<wgt id='1223'> +1.0419460e+02 </wgt>
<wgt id='1224'> +1.0436643e+02 </wgt>
<wgt id='1225'> +1.0735046e+02 </wgt>
<wgt id='1226'> +1.0996490e+02 </wgt>
<wgt id='1227'> +1.2058620e+02 </wgt>
<wgt id='1228'> +1.1401110e+02 </wgt>
<wgt id='1229'> +1.1643854e+02 </wgt>
<wgt id='1230'> +1.1181768e+02 </wgt>
<wgt id='1231'> +1.1882070e+02 </wgt>
<wgt id='1232'> +1.2100290e+02 </wgt>
<wgt id='1233'> +1.1051655e+02 </wgt>
<wgt id='1234'> +1.0937981e+02 </wgt>
<wgt id='1235'> +1.1517277e+02 </wgt>
<wgt id='1236'> +1.1565028e+02 </wgt>
<wgt id='1237'> +1.2127478e+02 </wgt>
<wgt id='1238'> +1.1729830e+02 </wgt>
<wgt id='1239'> +1.1914335e+02 </wgt>
<wgt id='1240'> +9.9636796e+01 </wgt>
<wgt id='1241'> +1.1613475e+02 </wgt>
<wgt id='1242'> +1.1921950e+02 </wgt>
<wgt id='1243'> +1.0478724e+02 </wgt>
<wgt id='1244'> +1.1197289e+02 </wgt>
<wgt id='1245'> +1.1124091e+02 </wgt>
<wgt id='1246'> +1.1745500e+02 </wgt>
<wgt id='1247'> +1.1897347e+02 </wgt>
<wgt id='1248'> +1.1868665e+02 </wgt>
<wgt id='1249'> +1.1752091e+02 </wgt>
<wgt id='1250'> +1.1739047e+02 </wgt>
<wgt id='1251'> +1.1761629e+02 </wgt>
<wgt id='1252'> +1.1620557e+02 </wgt>
<wgt id='1253'> +1.1611399e+02 </wgt>
<wgt id='1254'> +1.1642501e+02 </wgt>
<wgt id='1255'> +1.1619731e+02 </wgt>
<wgt id='1256'> +1.1648300e+02 </wgt>
<wgt id='1257'> +1.1628357e+02 </wgt>
<wgt id='1258'> +1.1634212e+02 </wgt>
<wgt id='1259'> +1.1630359e+02 </wgt>
<wgt id='1260'> +1.1664015e+02 </wgt>
<wgt id='1261'> +1.1680220e+02 </wgt>
<wgt id='1262'> +1.1596610e+02 </wgt>
<wgt id='1263'> +1.1595670e+02 </wgt>
<wgt id='1264'> +1.1636027e+02 </wgt>
<wgt id='1265'> +1.1586460e+02 </wgt>
<wgt id='1266'> +1.1673655e+02 </wgt>
<wgt id='1267'> +1.1600433e+02 </wgt>
<wgt id='1268'> +1.1661260e+02 </wgt>
<wgt id='1269'> +1.1599724e+02 </wgt>
<wgt id='1270'> +1.1575792e+02 </wgt>
<wgt id='1271'> +1.1651392e+02 </wgt>
<wgt id='1272'> +1.1595011e+02 </wgt>
<wgt id='1273'> +1.1667488e+02 </wgt>
<wgt id='1274'> +1.1634182e+02 </wgt>
<wgt id='1275'> +1.1570354e+02 </wgt>
<wgt id='1276'> +1.1617074e+02 </wgt>
<wgt id='1277'> +1.1623578e+02 </wgt>
<wgt id='1278'> +1.1519917e+02 </wgt>
<wgt id='1279'> +1.1638307e+02 </wgt>
<wgt id='1280'> +1.1687164e+02 </wgt>
<wgt id='1281'> +1.1500738e+02 </wgt>
<wgt id='1282'> +1.1495517e+02 </wgt>
<wgt id='1283'> +1.1664215e+02 </wgt>
<wgt id='1284'> +1.1666786e+02 </wgt>
<wgt id='1285'> +1.1617304e+02 </wgt>
<wgt id='1286'> +1.1561861e+02 </wgt>
<wgt id='1287'> +1.1768479e+02 </wgt>
<wgt id='1288'> +1.1673766e+02 </wgt>
<wgt id='1289'> +1.1578148e+02 </wgt>
<wgt id='1290'> +1.1671589e+02 </wgt>
<wgt id='1291'> +1.1586889e+02 </wgt>
<wgt id='1292'> +1.1623838e+02 </wgt>
<wgt id='1293'> +1.1631618e+02 </wgt>
<wgt id='1294'> +1.1647863e+02 </wgt>
<wgt id='1295'> +1.1602007e+02 </wgt>
<wgt id='1296'> +1.1651688e+02 </wgt>
<wgt id='1297'> +1.1577745e+02 </wgt>
<wgt id='1298'> +1.1621275e+02 </wgt>
<wgt id='1299'> +1.1599232e+02 </wgt>
<wgt id='1300'> +1.1652687e+02 </wgt>
<wgt id='1301'> +1.1655797e+02 </wgt>
<wgt id='1302'> +1.1635312e+02 </wgt>
<wgt id='1303'> +1.1670007e+02 </wgt>
<wgt id='1304'> +1.1593831e+02 </wgt>
<wgt id='1305'> +1.1621029e+02 </wgt>
<wgt id='1306'> +1.1660691e+02 </wgt>
<wgt id='1307'> +1.1607702e+02 </wgt>
<wgt id='1308'> +1.1621774e+02 </wgt>
<wgt id='1309'> +1.1619607e+02 </wgt>
<wgt id='1310'> +1.1671921e+02 </wgt>
<wgt id='1311'> +1.1619919e+02 </wgt>
<wgt id='1312'> +1.1599344e+02 </wgt>
<wgt id='1313'> +1.1632775e+02 </wgt>
<wgt id='1314'> +1.1603730e+02 </wgt>
<wgt id='1315'> +1.1584685e+02 </wgt>
<wgt id='1316'> +1.1540037e+02 </wgt>
<wgt id='1317'> +1.1643978e+02 </wgt>
<wgt id='1318'> +1.1642551e+02 </wgt>
<wgt id='1319'> +1.1651332e+02 </wgt>
<wgt id='1320'> +1.1649151e+02 </wgt>
<wgt id='1321'> +1.1638811e+02 </wgt>
<wgt id='1322'> +1.1597457e+02 </wgt>
<wgt id='1323'> +1.1593725e+02 </wgt>
<wgt id='1324'> +1.1603957e+02 </wgt>
<wgt id='1325'> +1.1627224e+02 </wgt>
<wgt id='1326'> +1.1632463e+02 </wgt>
<wgt id='1327'> +1.1628885e+02 </wgt>
<wgt id='1328'> +1.1622650e+02 </wgt>
<wgt id='1329'> +1.1622799e+02 </wgt>
<wgt id='1330'> +1.1642222e+02 </wgt>
<wgt id='1331'> +1.1602519e+02 </wgt>
<wgt id='1332'> +1.1632934e+02 </wgt>
<wgt id='1333'> +1.1640790e+02 </wgt>
<wgt id='1334'> +1.1647597e+02 </wgt>
<wgt id='1335'> +1.1636604e+02 </wgt>
<wgt id='1336'> +1.1619584e+02 </wgt>
<wgt id='1337'> +1.1625082e+02 </wgt>
<wgt id='1338'> +1.1625610e+02 </wgt>
<wgt id='1339'> +1.1594367e+02 </wgt>
<wgt id='1340'> +1.1622925e+02 </wgt>
<wgt id='1341'> +1.1622912e+02 </wgt>
<wgt id='1342'> +1.1590970e+02 </wgt>
<wgt id='1343'> +1.1589054e+02 </wgt>
<wgt id='1344'> +1.1632169e+02 </wgt>
<wgt id='1345'> +1.1612991e+02 </wgt>
<wgt id='1346'> +1.1614901e+02 </wgt>
<wgt id='1347'> +1.1614673e+02 </wgt>
<wgt id='1348'> +1.1621179e+02 </wgt>
<wgt id='1349'> +1.1621841e+02 </wgt>
<wgt id='1350'> +1.1590658e+02 </wgt>
<wgt id='1351'> +1.1627302e+02 </wgt>
<wgt id='1352'> +1.1636386e+02 </wgt>
<wgt id='1353'> +1.1162084e+02 </wgt>
<wgt id='1354'> +1.2048698e+02 </wgt>
<wgt id='1355'> +9.4711412e+01 </wgt>
<wgt id='1356'> +9.9052853e+01 </wgt>
<wgt id='1357'> +1.0317009e+02 </wgt>
<wgt id='1358'> +1.0768898e+02 </wgt>
<wgt id='1359'> +1.1312304e+02 </wgt>
<wgt id='1360'> +1.1841309e+02 </wgt>
<wgt id='1361'> +1.2498488e+02 </wgt>
<wgt id='1362'> +1.2941717e+02 </wgt>
<wgt id='1363'> +1.1768088e+02 </wgt>
<wgt id='1364'> +1.1775524e+02 </wgt>
<wgt id='1365'> +1.1750858e+02 </wgt>
<wgt id='1366'> +1.1761387e+02 </wgt>
<wgt id='1367'> +1.1786850e+02 </wgt>
<wgt id='1368'> +1.1752216e+02 </wgt>
<wgt id='1369'> +1.1782455e+02 </wgt>
<wgt id='1370'> +1.1768124e+02 </wgt>
<wgt id='1371'> +1.1760414e+02 </wgt>
<wgt id='1372'> +1.1783839e+02 </wgt>
<wgt id='1373'> +1.1747013e+02 </wgt>
<wgt id='1374'> +1.1766267e+02 </wgt>
<wgt id='1375'> +1.1739774e+02 </wgt>
<wgt id='1376'> +1.1786413e+02 </wgt>
<wgt id='1377'> +1.1818596e+02 </wgt>
<wgt id='1378'> +1.1723830e+02 </wgt>
<wgt id='1379'> +1.1761094e+02 </wgt>
<wgt id='1380'> +1.1743971e+02 </wgt>
<wgt id='1381'> +1.1757168e+02 </wgt>
<wgt id='1382'> +1.1761676e+02 </wgt>
<wgt id='1383'> +1.1753456e+02 </wgt>
<wgt id='1384'> +1.1813159e+02 </wgt>
<wgt id='1385'> +1.1783140e+02 </wgt>
<wgt id='1386'> +1.1824198e+02 </wgt>
<wgt id='1387'> +1.1784943e+02 </wgt>
<wgt id='1388'> +1.1734666e+02 </wgt>
<wgt id='1389'> +1.1746342e+02 </wgt>
<wgt id='1390'> +1.1793454e+02 </wgt>
<wgt id='1391'> +1.1830981e+02 </wgt>
<wgt id='1392'> +1.1802684e+02 </wgt>
<wgt id='1393'> +1.1624143e+02 </wgt>
<wgt id='1394'> +1.1800247e+02 </wgt>
<wgt id='1395'> +1.1700671e+02 </wgt>
<wgt id='1396'> +1.1793923e+02 </wgt>
<wgt id='1397'> +1.1754789e+02 </wgt>
<wgt id='1398'> +1.1707151e+02 </wgt>
<wgt id='1399'> +1.1678213e+02 </wgt>
<wgt id='1400'> +1.1700919e+02 </wgt>
<wgt id='1401'> +1.1710680e+02 </wgt>
<wgt id='1402'> +1.1739967e+02 </wgt>
<wgt id='1403'> +1.1731879e+02 </wgt>
<wgt id='1404'> +1.1717778e+02 </wgt>
<wgt id='1405'> +1.1751127e+02 </wgt>
<wgt id='1406'> +1.1808467e+02 </wgt>
<wgt id='1407'> +1.1710430e+02 </wgt>
<wgt id='1408'> +1.1740914e+02 </wgt>
<wgt id='1409'> +1.1720693e+02 </wgt>
<wgt id='1410'> +1.1782916e+02 </wgt>
<wgt id='1411'> +1.1779143e+02 </wgt>
<wgt id='1412'> +1.1743552e+02 </wgt>
<wgt id='1413'> +1.1822088e+02 </wgt>
<wgt id='1414'> +1.1864971e+02 </wgt>
<wgt id='1415'> +1.1794279e+02 </wgt>
<wgt id='1416'> +1.1754477e+02 </wgt>
<wgt id='1417'> +1.1793348e+02 </wgt>
<wgt id='1418'> +1.1733074e+02 </wgt>
<wgt id='1419'> +1.1766738e+02 </wgt>
<wgt id='1420'> +1.1723255e+02 </wgt>
<wgt id='1421'> +1.1727814e+02 </wgt>
<wgt id='1422'> +1.1809797e+02 </wgt>
<wgt id='1423'> +1.1817763e+02 </wgt>
<wgt id='1424'> +1.1762194e+02 </wgt>
<wgt id='1425'> +1.1744868e+02 </wgt>
<wgt id='1426'> +1.1807875e+02 </wgt>
<wgt id='1427'> +1.1757701e+02 </wgt>
<wgt id='1428'> +1.1743124e+02 </wgt>
<wgt id='1429'> +1.1781814e+02 </wgt>
<wgt id='1430'> +1.1771385e+02 </wgt>
<wgt id='1431'> +1.1776851e+02 </wgt>
<wgt id='1432'> +1.1755440e+02 </wgt>
<wgt id='1433'> +1.1702047e+02 </wgt>
<wgt id='1434'> +1.1753578e+02 </wgt>
<wgt id='1435'> +1.1758382e+02 </wgt>
<wgt id='1436'> +1.1719431e+02 </wgt>
<wgt id='1437'> +1.1768302e+02 </wgt>
<wgt id='1438'> +1.1752735e+02 </wgt>
<wgt id='1439'> +1.1747934e+02 </wgt>
<wgt id='1440'> +1.1770917e+02 </wgt>
<wgt id='1441'> +1.1789461e+02 </wgt>
<wgt id='1442'> +1.1762499e+02 </wgt>
<wgt id='1443'> +1.1757496e+02 </wgt>
<wgt id='1444'> +1.1781078e+02 </wgt>
<wgt id='1445'> +1.1773915e+02 </wgt>
<wgt id='1446'> +1.1795040e+02 </wgt>
<wgt id='1447'> +1.1750151e+02 </wgt>
<wgt id='1448'> +1.1773472e+02 </wgt>
<wgt id='1449'> +1.1760672e+02 </wgt>
<wgt id='1450'> +1.1776542e+02 </wgt>
<wgt id='1451'> +1.1750498e+02 </wgt>
<wgt id='1452'> +1.1733241e+02 </wgt>
<wgt id='1453'> +1.1778992e+02 </wgt>
<wgt id='1454'> +1.1776205e+02 </wgt>
<wgt id='1455'> +1.1743108e+02 </wgt>
<wgt id='1456'> +1.1777181e+02 </wgt>
<wgt id='1457'> +1.1782214e+02 </wgt>
<wgt id='1458'> +1.1780734e+02 </wgt>
<wgt id='1459'> +1.1751258e+02 </wgt>
<wgt id='1460'> +1.1762714e+02 </wgt>
<wgt id='1461'> +1.1785120e+02 </wgt>
<wgt id='1462'> +1.1798295e+02 </wgt>
<wgt id='1463'> +1.1751602e+02 </wgt>
<wgt id='1464'> +1.1355931e+02 </wgt>
<wgt id='1465'> +1.2232095e+02 </wgt>
<wgt id='1466'> +1.1185994e+02 </wgt>
<wgt id='1467'> +1.1139308e+02 </wgt>
<wgt id='1468'> +1.1128986e+02 </wgt>
<wgt id='1469'> +1.1003954e+02 </wgt>
<wgt id='1470'> +1.1173132e+02 </wgt>
<wgt id='1471'> +1.1217347e+02 </wgt>
<wgt id='1472'> +1.1010146e+02 </wgt>
<wgt id='1473'> +1.0999648e+02 </wgt>
<wgt id='1474'> +1.1295245e+02 </wgt>
<wgt id='1475'> +1.1287225e+02 </wgt>
<wgt id='1476'> +1.1091820e+02 </wgt>
<wgt id='1477'> +1.1342117e+02 </wgt>
<wgt id='1478'> +1.0901276e+02 </wgt>
<wgt id='1479'> +1.1310400e+02 </wgt>
<wgt id='1480'> +1.1178225e+02 </wgt>
<wgt id='1481'> +1.1197995e+02 </wgt>
<wgt id='1482'> +1.1116581e+02 </wgt>
<wgt id='1483'> +1.1461739e+02 </wgt>
<wgt id='1484'> +1.0898921e+02 </wgt>
<wgt id='1485'> +1.1294128e+02 </wgt>
<wgt id='1486'> +1.1079539e+02 </wgt>
<wgt id='1487'> +1.1127919e+02 </wgt>
<wgt id='1488'> +1.1217138e+02 </wgt>
<wgt id='1489'> +1.1352746e+02 </wgt>
<wgt id='1490'> +1.1001696e+02 </wgt>
<wgt id='1491'> +1.1283576e+02 </wgt>
<wgt id='1492'> +1.1106379e+02 </wgt>
<wgt id='1493'> +1.1057710e+02 </wgt>
<wgt id='1494'> +1.1403332e+02 </wgt>
<wgt id='1495'> +1.1054113e+02 </wgt>
<wgt id='1496'> +1.1271727e+02 </wgt>
<wgt id='1497'> +1.1375063e+02 </wgt>
<wgt id='1498'> +1.0893924e+02 </wgt>
<wgt id='1499'> +1.1202359e+02 </wgt>
<wgt id='1500'> +1.1177190e+02 </wgt>
<wgt id='1501'> +1.1294438e+02 </wgt>
<wgt id='1502'> +1.1080533e+02 </wgt>
<wgt id='1503'> +1.1488961e+02 </wgt>
<wgt id='1504'> +1.0848329e+02 </wgt>
<wgt id='1505'> +1.1482598e+02 </wgt>
<wgt id='1506'> +1.0838811e+02 </wgt>
<wgt id='1507'> +1.1223931e+02 </wgt>
<wgt id='1508'> +1.1166078e+02 </wgt>
<wgt id='1509'> +1.1256077e+02 </wgt>
<wgt id='1510'> +1.1160461e+02 </wgt>
<wgt id='1511'> +1.0933986e+02 </wgt>
<wgt id='1512'> +1.1227727e+02 </wgt>
<wgt id='1513'> +1.1324377e+02 </wgt>
<wgt id='1514'> +1.0996085e+02 </wgt>
<wgt id='1515'> +1.1116001e+02 </wgt>
<wgt id='1516'> +1.1266051e+02 </wgt>
<wgt id='1517'> +1.1161266e+02 </wgt>
<wgt id='1518'> +1.1313298e+02 </wgt>
<wgt id='1519'> +1.1077827e+02 </wgt>
<wgt id='1520'> +1.0981147e+02 </wgt>
<wgt id='1521'> +1.1156081e+02 </wgt>
<wgt id='1522'> +1.1466726e+02 </wgt>
<wgt id='1523'> +1.0753458e+02 </wgt>
<wgt id='1524'> +1.1635123e+02 </wgt>
<wgt id='1525'> +1.1337106e+02 </wgt>
<wgt id='1526'> +1.1413607e+02 </wgt>
<wgt id='1527'> +1.1331560e+02 </wgt>
<wgt id='1528'> +1.1118222e+02 </wgt>
<wgt id='1529'> +1.1354528e+02 </wgt>
<wgt id='1530'> +1.1455945e+02 </wgt>
<wgt id='1531'> +1.1252265e+02 </wgt>
<wgt id='1532'> +1.1390119e+02 </wgt>
<wgt id='1533'> +1.1113792e+02 </wgt>
<wgt id='1534'> +1.1352128e+02 </wgt>
<wgt id='1535'> +1.1288317e+02 </wgt>
<wgt id='1536'> +1.1107150e+02 </wgt>
<wgt id='1537'> +1.1486165e+02 </wgt>
<wgt id='1538'> +1.1425004e+02 </wgt>
<wgt id='1539'> +1.1203006e+02 </wgt>
<wgt id='1540'> +1.1618159e+02 </wgt>
<wgt id='1541'> +1.0951512e+02 </wgt>
<wgt id='1542'> +1.1685400e+02 </wgt>
<wgt id='1543'> +1.0936376e+02 </wgt>
<wgt id='1544'> +1.1373647e+02 </wgt>
<wgt id='1545'> +1.1287361e+02 </wgt>
<wgt id='1546'> +1.1338246e+02 </wgt>
<wgt id='1547'> +1.1284153e+02 </wgt>
<wgt id='1548'> +1.1204355e+02 </wgt>
<wgt id='1549'> +1.1465570e+02 </wgt>
<wgt id='1550'> +1.1169408e+02 </wgt>
<wgt id='1551'> +1.1465409e+02 </wgt>
<wgt id='1552'> +1.1309003e+02 </wgt>
<wgt id='1553'> +1.1367130e+02 </wgt>
<wgt id='1554'> +1.1074717e+02 </wgt>
<wgt id='1555'> +1.1428162e+02 </wgt>
<wgt id='1556'> +1.1252095e+02 </wgt>
<wgt id='1557'> +1.1444290e+02 </wgt>
<wgt id='1558'> +1.1360470e+02 </wgt>
<wgt id='1559'> +1.1282433e+02 </wgt>
<wgt id='1560'> +1.1285705e+02 </wgt>
<wgt id='1561'> +1.1395872e+02 </wgt>
<wgt id='1562'> +1.1209989e+02 </wgt>
<wgt id='1563'> +1.1483384e+02 </wgt>
<wgt id='1564'> +1.1093975e+02 </wgt>
<wgt id='1565'> +1.1450107e+02 </wgt>
<wgt id='1566'> +1.1172434e+02 </wgt>
<wgt id='1567'> +1.1543460e+02 </wgt>
<wgt id='1568'> +1.1270292e+02 </wgt>
<wgt id='1569'> +1.1379657e+02 </wgt>
<wgt id='1570'> +1.1395753e+02 </wgt>
<wgt id='1571'> +1.1169079e+02 </wgt>
<wgt id='1572'> +1.1108184e+02 </wgt>
<wgt id='1573'> +1.1304800e+02 </wgt>
<wgt id='1574'> +1.1123577e+02 </wgt>
<wgt id='1575'> +1.1432138e+02 </wgt>
<wgt id='1576'> +1.1326373e+02 </wgt>
<wgt id='1577'> +1.1276978e+02 </wgt>
<wgt id='1578'> +1.1307354e+02 </wgt>
<wgt id='1579'> +1.1276550e+02 </wgt>
<wgt id='1580'> +1.1377874e+02 </wgt>
<wgt id='1581'> +1.1505770e+02 </wgt>
<wgt id='1582'> +1.0887182e+02 </wgt>
<wgt id='1583'> +1.1785278e+02 </wgt>
<wgt id='1584'> +1.1132150e+02 </wgt>
<wgt id='1585'> +1.1381662e+02 </wgt>
<wgt id='1586'> +1.1319657e+02 </wgt>
<wgt id='1587'> +1.1447875e+02 </wgt>
<wgt id='1588'> +1.1387005e+02 </wgt>
<wgt id='1589'> +1.1377420e+02 </wgt>
<wgt id='1590'> +1.1340793e+02 </wgt>
<wgt id='1591'> +1.1419117e+02 </wgt>
<wgt id='1592'> +1.1424717e+02 </wgt>
<wgt id='1593'> +1.1333251e+02 </wgt>
<wgt id='1594'> +1.1239033e+02 </wgt>
<wgt id='1595'> +1.1521855e+02 </wgt>
<wgt id='1596'> +1.1335499e+02 </wgt>
<wgt id='1597'> +1.1481659e+02 </wgt>
<wgt id='1598'> +1.1324722e+02 </wgt>
<wgt id='1599'> +1.1482831e+02 </wgt>
<wgt id='1600'> +1.1422790e+02 </wgt>
<wgt id='1601'> +1.1357826e+02 </wgt>
<wgt id='1602'> +1.1367544e+02 </wgt>
<wgt id='1603'> +1.1395047e+02 </wgt>
<wgt id='1604'> +1.1269230e+02 </wgt>
<wgt id='1605'> +1.1478688e+02 </wgt>
<wgt id='1606'> +1.1484261e+02 </wgt>
<wgt id='1607'> +1.1248172e+02 </wgt>
<wgt id='1608'> +1.1381611e+02 </wgt>
<wgt id='1609'> +1.1375840e+02 </wgt>
<wgt id='1610'> +1.1415085e+02 </wgt>
<wgt id='1611'> +1.1347548e+02 </wgt>
<wgt id='1612'> +1.1388546e+02 </wgt>
<wgt id='1613'> +1.1377898e+02 </wgt>
<wgt id='1614'> +1.1408419e+02 </wgt>
<wgt id='1615'> +1.1354152e+02 </wgt>
<wgt id='1616'> +1.1534446e+02 </wgt>
<wgt id='1617'> +1.1221579e+02 </wgt>
<wgt id='1618'> +1.1284769e+02 </wgt>
<wgt id='1619'> +1.1498256e+02 </wgt>
<wgt id='1620'> +1.1375663e+02 </wgt>
<wgt id='1621'> +1.1337516e+02 </wgt>
<wgt id='1622'> +1.1347926e+02 </wgt>
<wgt id='1623'> +1.1408603e+02 </wgt>
<wgt id='1624'> +1.1356020e+02 </wgt>
<wgt id='1625'> +1.1398617e+02 </wgt>
<wgt id='1626'> +1.1229238e+02 </wgt>
<wgt id='1627'> +1.1632787e+02 </wgt>
<wgt id='1628'> +1.1324537e+02 </wgt>
<wgt id='1629'> +1.1404053e+02 </wgt>
<wgt id='1630'> +1.1324596e+02 </wgt>
<wgt id='1631'> +1.1536358e+02 </wgt>
<wgt id='1632'> +1.1428510e+02 </wgt>
<wgt id='1633'> +1.1343106e+02 </wgt>
<wgt id='1634'> +1.1419411e+02 </wgt>
<wgt id='1635'> +1.1389701e+02 </wgt>
<wgt id='1636'> +1.1547663e+02 </wgt>
<wgt id='1637'> +1.1490216e+02 </wgt>
<wgt id='1638'> +1.1621061e+02 </wgt>
<wgt id='1639'> +1.1494768e+02 </wgt>
<wgt id='1640'> +1.1601006e+02 </wgt>
<wgt id='1641'> +1.1555231e+02 </wgt>
<wgt id='1642'> +1.1544948e+02 </wgt>
<wgt id='1643'> +1.1565695e+02 </wgt>
<wgt id='1644'> +1.1529051e+02 </wgt>
<wgt id='1645'> +1.1465305e+02 </wgt>
<wgt id='1646'> +1.1627556e+02 </wgt>
<wgt id='1647'> +1.1781964e+02 </wgt>
<wgt id='1648'> +1.1447545e+02 </wgt>
<wgt id='1649'> +1.1526194e+02 </wgt>
<wgt id='1650'> +1.1573937e+02 </wgt>
<wgt id='1651'> +1.1499252e+02 </wgt>
<wgt id='1652'> +1.1600085e+02 </wgt>
<wgt id='1653'> +1.1472019e+02 </wgt>
<wgt id='1654'> +1.1588836e+02 </wgt>
<wgt id='1655'> +1.1610906e+02 </wgt>
<wgt id='1656'> +1.1462222e+02 </wgt>
<wgt id='1657'> +1.1403182e+02 </wgt>
<wgt id='1658'> +1.1649277e+02 </wgt>
<wgt id='1659'> +1.1357407e+02 </wgt>
<wgt id='1660'> +1.1733996e+02 </wgt>
<wgt id='1661'> +1.1544145e+02 </wgt>
<wgt id='1662'> +1.1550333e+02 </wgt>
<wgt id='1663'> +1.1529937e+02 </wgt>
<wgt id='1664'> +1.1560168e+02 </wgt>
<wgt id='1665'> +1.1501498e+02 </wgt>
<wgt id='1666'> +1.1681626e+02 </wgt>
<wgt id='1667'> +1.1648068e+02 </wgt>
<wgt id='1668'> +1.1330560e+02 </wgt>
<wgt id='1669'> +1.1566693e+02 </wgt>
<wgt id='1670'> +1.1510792e+02 </wgt>
<wgt id='1671'> +1.1565506e+02 </wgt>
<wgt id='1672'> +1.1518675e+02 </wgt>
<wgt id='1673'> +1.1536049e+02 </wgt>
<wgt id='1674'> +1.1562482e+02 </wgt>
<wgt id='1675'> +1.1519726e+02 </wgt>
<wgt id='1676'> +1.1556585e+02 </wgt>
<wgt id='1677'> +1.1726007e+02 </wgt>
<wgt id='1678'> +1.1259037e+02 </wgt>
<wgt id='1679'> +1.1559880e+02 </wgt>
<wgt id='1680'> +1.1544472e+02 </wgt>
<wgt id='1681'> +1.1522186e+02 </wgt>
<wgt id='1682'> +1.1586570e+02 </wgt>
<wgt id='1683'> +1.1698178e+02 </wgt>
<wgt id='1684'> +1.1477196e+02 </wgt>
<wgt id='1685'> +1.1496751e+02 </wgt>
<wgt id='1686'> +1.1561267e+02 </wgt>
<wgt id='1687'> +1.4273353e+02 </wgt>
<wgt id='1688'> +1.1490868e+02 </wgt>
<wgt id='1689'> +1.1489044e+02 </wgt>
<wgt id='1690'> +1.1477723e+02 </wgt>
<wgt id='1691'> +1.1525144e+02 </wgt>
<wgt id='1692'> +1.1491266e+02 </wgt>
<wgt id='1693'> +1.1518799e+02 </wgt>
<wgt id='1694'> +1.1473797e+02 </wgt>
<wgt id='1695'> +1.1526711e+02 </wgt>
<wgt id='1696'> +1.1404950e+02 </wgt>
<wgt id='1697'> +1.1454542e+02 </wgt>
<wgt id='1698'> +1.1513770e+02 </wgt>
<wgt id='1699'> +1.1460989e+02 </wgt>
<wgt id='1700'> +1.1539939e+02 </wgt>
<wgt id='1701'> +1.1504926e+02 </wgt>
<wgt id='1702'> +1.1442665e+02 </wgt>
<wgt id='1703'> +1.1506587e+02 </wgt>
<wgt id='1704'> +1.1468618e+02 </wgt>
<wgt id='1705'> +1.1463564e+02 </wgt>
<wgt id='1706'> +1.1471117e+02 </wgt>
<wgt id='1707'> +1.1500299e+02 </wgt>
<wgt id='1708'> +1.1495809e+02 </wgt>
<wgt id='1709'> +1.1459649e+02 </wgt>
<wgt id='1710'> +1.1487699e+02 </wgt>
<wgt id='1711'> +1.1437082e+02 </wgt>
<wgt id='1712'> +1.1497955e+02 </wgt>
<wgt id='1713'> +1.1497052e+02 </wgt>
<wgt id='1714'> +1.1529509e+02 </wgt>
<wgt id='1715'> +1.1440054e+02 </wgt>
<wgt id='1716'> +1.1628356e+02 </wgt>
<wgt id='1717'> +1.1443128e+02 </wgt>
<wgt id='1718'> +1.1412242e+02 </wgt>
<wgt id='1719'> +1.1417790e+02 </wgt>
<wgt id='1720'> +1.1369909e+02 </wgt>
<wgt id='1721'> +1.1444412e+02 </wgt>
<wgt id='1722'> +1.1396513e+02 </wgt>
<wgt id='1723'> +1.1419798e+02 </wgt>
<wgt id='1724'> +1.1385887e+02 </wgt>
<wgt id='1725'> +1.1417792e+02 </wgt>
<wgt id='1726'> +1.1382590e+02 </wgt>
<wgt id='1727'> +1.1435370e+02 </wgt>
<wgt id='1728'> +1.1429603e+02 </wgt>
<wgt id='1729'> +1.1338031e+02 </wgt>
<wgt id='1730'> +1.1452235e+02 </wgt>
<wgt id='1731'> +1.1362504e+02 </wgt>
<wgt id='1732'> +1.1384036e+02 </wgt>
<wgt id='1733'> +1.1421325e+02 </wgt>
<wgt id='1734'> +1.1291979e+02 </wgt>
<wgt id='1735'> +1.1495693e+02 </wgt>
<wgt id='1736'> +1.1547344e+02 </wgt>
<wgt id='1737'> +1.1361138e+02 </wgt>
<wgt id='1738'> +1.1428501e+02 </wgt>
<wgt id='1739'> +1.1470652e+02 </wgt>
<wgt id='1740'> +1.1409387e+02 </wgt>
<wgt id='1741'> +1.1569184e+02 </wgt>
<wgt id='1742'> +1.1364157e+02 </wgt>
<wgt id='1743'> +1.1341506e+02 </wgt>
<wgt id='1744'> +1.1386854e+02 </wgt>
<wgt id='1745'> +1.1473787e+02 </wgt>
<wgt id='1746'> +1.1398291e+02 </wgt>
<wgt id='1747'> +1.1417226e+02 </wgt>
<wgt id='1748'> +1.1500767e+02 </wgt>
<wgt id='1749'> +1.1384388e+02 </wgt>
<wgt id='1750'> +1.1460785e+02 </wgt>
<wgt id='1751'> +1.1491331e+02 </wgt>
<wgt id='1752'> +1.1439549e+02 </wgt>
<wgt id='1753'> +1.1479985e+02 </wgt>
<wgt id='1754'> +1.1390011e+02 </wgt>
<wgt id='1755'> +1.1423593e+02 </wgt>
<wgt id='1756'> +1.1430224e+02 </wgt>
<wgt id='1757'> +1.1459214e+02 </wgt>
<wgt id='1758'> +1.1447221e+02 </wgt>
<wgt id='1759'> +1.1450460e+02 </wgt>
<wgt id='1760'> +1.1478479e+02 </wgt>
<wgt id='1761'> +1.1381799e+02 </wgt>
<wgt id='1762'> +1.1417268e+02 </wgt>
<wgt id='1763'> +1.1471978e+02 </wgt>
<wgt id='1764'> +1.1418715e+02 </wgt>
<wgt id='1765'> +1.1378517e+02 </wgt>
<wgt id='1766'> +1.1375004e+02 </wgt>
<wgt id='1767'> +1.1402270e+02 </wgt>
<wgt id='1768'> +1.1404215e+02 </wgt>
<wgt id='1769'> +1.1417039e+02 </wgt>
<wgt id='1770'> +1.1453930e+02 </wgt>
<wgt id='1771'> +1.1373318e+02 </wgt>
<wgt id='1772'> +1.1424757e+02 </wgt>
<wgt id='1773'> +1.1406832e+02 </wgt>
<wgt id='1774'> +1.1404640e+02 </wgt>
<wgt id='1775'> +1.1409700e+02 </wgt>
<wgt id='1776'> +1.1400171e+02 </wgt>
<wgt id='1777'> +1.1334739e+02 </wgt>
<wgt id='1778'> +1.1408049e+02 </wgt>
<wgt id='1779'> +1.1461000e+02 </wgt>
<wgt id='1780'> +1.1346628e+02 </wgt>
<wgt id='1781'> +1.1366234e+02 </wgt>
<wgt id='1782'> +1.1408789e+02 </wgt>
<wgt id='1783'> +1.1412824e+02 </wgt>
<wgt id='1784'> +1.1382039e+02 </wgt>
<wgt id='1785'> +1.1424185e+02 </wgt>
<wgt id='1786'> +1.1435060e+02 </wgt>
<wgt id='1787'> +1.1422342e+02 </wgt>
<wgt id='1788'> +1.1380669e+02 </wgt>
<wgt id='1789'> +1.1427366e+02 </wgt>
<wgt id='1790'> +1.1434227e+02 </wgt>
<wgt id='1791'> +1.1424205e+02 </wgt>
<wgt id='1792'> +1.1414266e+02 </wgt>
<wgt id='1793'> +1.1405144e+02 </wgt>
<wgt id='1794'> +1.1423637e+02 </wgt>
<wgt id='1795'> +1.1407502e+02 </wgt>
<wgt id='1796'> +1.1408484e+02 </wgt>
<wgt id='1797'> +1.1444145e+02 </wgt>
<wgt id='1798'> +1.1444755e+02 </wgt>
<wgt id='1799'> +1.1413367e+02 </wgt>
<wgt id='1800'> +1.1401074e+02 </wgt>
<wgt id='1801'> +1.1402998e+02 </wgt>
<wgt id='1802'> +1.1405735e+02 </wgt>
<wgt id='1803'> +1.1414104e+02 </wgt>
<wgt id='1804'> +1.1422007e+02 </wgt>
<wgt id='1805'> +1.1417783e+02 </wgt>
<wgt id='1806'> +1.1409082e+02 </wgt>
<wgt id='1807'> +1.1405280e+02 </wgt>
<wgt id='1808'> +1.1416431e+02 </wgt>
<wgt id='1809'> +1.1406289e+02 </wgt>
<wgt id='1810'> +1.1409758e+02 </wgt>
<wgt id='1811'> +1.1401071e+02 </wgt>
<wgt id='1812'> +1.1400625e+02 </wgt>
<wgt id='1813'> +1.1405938e+02 </wgt>
<wgt id='1814'> +1.1412573e+02 </wgt>
<wgt id='1815'> +1.1414921e+02 </wgt>
<wgt id='1816'> +1.1413864e+02 </wgt>
<wgt id='1817'> +1.1425896e+02 </wgt>
<wgt id='1818'> +1.1417025e+02 </wgt>
<wgt id='1819'> +1.1039325e+02 </wgt>
<wgt id='1820'> +1.1759999e+02 </wgt>
<wgt id='1821'> +1.1372322e+02 </wgt>
<wgt id='1822'> +1.1395084e+02 </wgt>
<wgt id='1823'> +1.1363300e+02 </wgt>
<wgt id='1824'> +1.1387230e+02 </wgt>
<wgt id='1825'> +1.1426276e+02 </wgt>
<wgt id='1826'> +1.1391165e+02 </wgt>
<wgt id='1827'> +1.1369751e+02 </wgt>
<wgt id='1828'> +1.1376550e+02 </wgt>
<wgt id='1829'> +1.1386302e+02 </wgt>
<wgt id='1830'> +1.1380520e+02 </wgt>
<wgt id='1831'> +1.1336746e+02 </wgt>
<wgt id='1832'> +1.1404580e+02 </wgt>
<wgt id='1833'> +1.1397200e+02 </wgt>
<wgt id='1834'> +1.1395676e+02 </wgt>
<wgt id='1835'> +1.1407587e+02 </wgt>
<wgt id='1836'> +1.1506371e+02 </wgt>
<wgt id='1837'> +1.1313559e+02 </wgt>
<wgt id='1838'> +1.1356528e+02 </wgt>
<wgt id='1839'> +1.1475880e+02 </wgt>
<wgt id='1840'> +1.1233951e+02 </wgt>
<wgt id='1841'> +1.1298803e+02 </wgt>
<wgt id='1842'> +1.1438320e+02 </wgt>
<wgt id='1843'> +1.1203781e+02 </wgt>
<wgt id='1844'> +1.1408253e+02 </wgt>
<wgt id='1845'> +1.1488808e+02 </wgt>
<wgt id='1846'> +1.1350743e+02 </wgt>
<wgt id='1847'> +1.1335774e+02 </wgt>
<wgt id='1848'> +1.1385678e+02 </wgt>
<wgt id='1849'> +1.1322265e+02 </wgt>
<wgt id='1850'> +1.1299280e+02 </wgt>
<wgt id='1851'> +1.1360433e+02 </wgt>
<wgt id='1852'> +1.1287494e+02 </wgt>
<wgt id='1853'> +1.1374069e+02 </wgt>
<wgt id='1854'> +1.1277107e+02 </wgt>
<wgt id='1855'> +1.1333981e+02 </wgt>
<wgt id='1856'> +1.1360240e+02 </wgt>
<wgt id='1857'> +1.1423424e+02 </wgt>
<wgt id='1858'> +1.1353416e+02 </wgt>
<wgt id='1859'> +1.1388284e+02 </wgt>
<wgt id='1860'> +1.1392964e+02 </wgt>
<wgt id='1861'> +1.1326766e+02 </wgt>
<wgt id='1862'> +1.1360671e+02 </wgt>
<wgt id='1863'> +1.1338374e+02 </wgt>
<wgt id='1864'> +1.1344069e+02 </wgt>
<wgt id='1865'> +1.1358267e+02 </wgt>
<wgt id='1866'> +1.1403825e+02 </wgt>
<wgt id='1867'> +1.1347140e+02 </wgt>
<wgt id='1868'> +1.1266973e+02 </wgt>
<wgt id='1869'> +1.1358254e+02 </wgt>
<wgt id='1870'> +1.1372708e+02 </wgt>
<wgt id='1871'> +1.1386937e+02 </wgt>
<wgt id='1872'> +1.1379235e+02 </wgt>
<wgt id='1873'> +1.1385966e+02 </wgt>
<wgt id='1874'> +1.1384447e+02 </wgt>
<wgt id='1875'> +1.1358288e+02 </wgt>
<wgt id='1876'> +1.1389917e+02 </wgt>
<wgt id='1877'> +1.1403965e+02 </wgt>
<wgt id='1878'> +1.1340331e+02 </wgt>
<wgt id='1879'> +1.1351346e+02 </wgt>
<wgt id='1880'> +1.1356126e+02 </wgt>
<wgt id='1881'> +1.1398883e+02 </wgt>
<wgt id='1882'> +1.1340199e+02 </wgt>
<wgt id='1883'> +1.1369061e+02 </wgt>
<wgt id='1884'> +1.1378644e+02 </wgt>
<wgt id='1885'> +1.1331333e+02 </wgt>
<wgt id='1886'> +1.1462537e+02 </wgt>
<wgt id='1887'> +1.1328942e+02 </wgt>
<wgt id='1888'> +1.1393098e+02 </wgt>
<wgt id='1889'> +1.1415101e+02 </wgt>
<wgt id='1890'> +1.1376348e+02 </wgt>
<wgt id='1891'> +1.1368561e+02 </wgt>
<wgt id='1892'> +1.1381481e+02 </wgt>
<wgt id='1893'> +1.1413673e+02 </wgt>
<wgt id='1894'> +1.1359659e+02 </wgt>
<wgt id='1895'> +1.1378344e+02 </wgt>
<wgt id='1896'> +1.1363963e+02 </wgt>
<wgt id='1897'> +1.1367790e+02 </wgt>
<wgt id='1898'> +1.1376676e+02 </wgt>
<wgt id='1899'> +1.1351370e+02 </wgt>
<wgt id='1900'> +1.1343666e+02 </wgt>
<wgt id='1901'> +1.1397497e+02 </wgt>
<wgt id='1902'> +1.1383231e+02 </wgt>
<wgt id='1903'> +1.1377014e+02 </wgt>
<wgt id='1904'> +1.1365563e+02 </wgt>
<wgt id='1905'> +1.1363119e+02 </wgt>
<wgt id='1906'> +1.1366846e+02 </wgt>
<wgt id='1907'> +1.1375578e+02 </wgt>
<wgt id='1908'> +1.1363264e+02 </wgt>
<wgt id='1909'> +1.1374623e+02 </wgt>
<wgt id='1910'> +1.1376526e+02 </wgt>
<wgt id='1911'> +1.1366678e+02 </wgt>
<wgt id='1912'> +1.1369384e+02 </wgt>
<wgt id='1913'> +1.1365606e+02 </wgt>
<wgt id='1914'> +1.1375305e+02 </wgt>
<wgt id='1915'> +1.1354603e+02 </wgt>
<wgt id='1916'> +1.1372296e+02 </wgt>
<wgt id='1917'> +1.1381545e+02 </wgt>
<wgt id='1918'> +1.1372261e+02 </wgt>
<wgt id='1919'> +1.1362849e+02 </wgt>
<wgt id='1920'> +1.1366128e+02 </wgt>
<wgt id='1921'> +1.1371476e+02 </wgt>
<wgt id='1922'> +1.1032767e+02 </wgt>
<wgt id='1923'> +1.1712641e+02 </wgt>
<wgt id='1924'> +1.1412689e+02 </wgt>
<wgt id='1925'> +1.1525638e+02 </wgt>
<wgt id='1926'> +1.1213753e+02 </wgt>
<wgt id='1927'> +1.1405577e+02 </wgt>
<wgt id='1928'> +1.1436204e+02 </wgt>
<wgt id='1929'> +1.1330984e+02 </wgt>
<wgt id='1930'> +1.1544610e+02 </wgt>
<wgt id='1931'> +1.1409780e+02 </wgt>
<wgt id='1932'> +1.1415591e+02 </wgt>
<wgt id='1933'> +1.1410039e+02 </wgt>
<wgt id='1934'> +1.1447450e+02 </wgt>
<wgt id='1935'> +1.1408325e+02 </wgt>
<wgt id='1936'> +1.1453999e+02 </wgt>
<wgt id='1937'> +1.1404082e+02 </wgt>
<wgt id='1938'> +1.1335245e+02 </wgt>
<wgt id='1939'> +1.1375090e+02 </wgt>
<wgt id='1940'> +1.1416545e+02 </wgt>
<wgt id='1941'> +1.1392370e+02 </wgt>
<wgt id='1942'> +1.1367175e+02 </wgt>
<wgt id='1943'> +1.1423065e+02 </wgt>
<wgt id='1944'> +1.1545816e+02 </wgt>
<wgt id='1945'> +1.1390479e+02 </wgt>
<wgt id='1946'> +1.1414411e+02 </wgt>
<wgt id='1947'> +1.1417637e+02 </wgt>
<wgt id='1948'> +1.1450846e+02 </wgt>
<wgt id='1949'> +1.1400813e+02 </wgt>
<wgt id='1950'> +1.1399100e+02 </wgt>
<wgt id='1951'> +1.1193965e+02 </wgt>
<wgt id='1952'> +1.1425899e+02 </wgt>
<wgt id='1953'> +1.1415371e+02 </wgt>
<wgt id='1954'> +1.1423556e+02 </wgt>
<wgt id='1955'> +1.1039325e+02 </wgt>
<wgt id='1956'> +1.1759999e+02 </wgt>
<wgt id='1957'> +1.1371901e+02 </wgt>
<wgt id='1958'> +1.1452801e+02 </wgt>
<wgt id='1959'> +1.1503259e+02 </wgt>
<wgt id='1960'> +1.1371733e+02 </wgt>
<wgt id='1961'> +1.1342149e+02 </wgt>
<wgt id='1962'> +1.1347921e+02 </wgt>
<wgt id='1963'> +1.1375137e+02 </wgt>
<wgt id='1964'> +1.1345075e+02 </wgt>
<wgt id='1965'> +1.1403882e+02 </wgt>
<wgt id='1966'> +1.1210503e+02 </wgt>
<wgt id='1967'> +1.1342840e+02 </wgt>
<wgt id='1968'> +1.1564384e+02 </wgt>
<wgt id='1969'> +1.1385767e+02 </wgt>
<wgt id='1970'> +1.1397663e+02 </wgt>
<wgt id='1971'> +1.1367187e+02 </wgt>
<wgt id='1972'> +1.1438424e+02 </wgt>
<wgt id='1973'> +1.1375247e+02 </wgt>
<wgt id='1974'> +1.1264862e+02 </wgt>
<wgt id='1975'> +1.1372054e+02 </wgt>
<wgt id='1976'> +1.1408806e+02 </wgt>
<wgt id='1977'> +1.1350041e+02 </wgt>
<wgt id='1978'> +1.1290606e+02 </wgt>
<wgt id='1979'> +1.1331776e+02 </wgt>
<wgt id='1980'> +1.1371420e+02 </wgt>
<wgt id='1981'> +1.1350672e+02 </wgt>
<wgt id='1982'> +1.1392447e+02 </wgt>
<wgt id='1983'> +1.1128667e+02 </wgt>
<wgt id='1984'> +1.1387635e+02 </wgt>
<wgt id='1985'> +1.1388717e+02 </wgt>
<wgt id='1986'> +1.1386310e+02 </wgt>
<wgt id='1987'> +1.1384145e+02 </wgt>
<wgt id='1988'> +1.1032767e+02 </wgt>
<wgt id='1989'> +1.1712641e+02 </wgt>
<wgt id='1990'> +1.3767040e+02 </wgt>
<wgt id='1991'> +1.3801059e+02 </wgt>
<wgt id='1992'> +1.3733146e+02 </wgt>
<wgt id='1993'> +1.3704275e+02 </wgt>
<wgt id='1994'> +1.3829871e+02 </wgt>
<wgt id='1995'> +1.3750129e+02 </wgt>
<wgt id='1996'> +1.3783836e+02 </wgt>
<wgt id='1997'> +1.3686975e+02 </wgt>
<wgt id='1998'> +1.3845166e+02 </wgt>
<wgt id='1999'> +1.3900887e+02 </wgt>
<wgt id='2000'> +1.3633502e+02 </wgt>
<wgt id='2001'> +1.3823803e+02 </wgt>
<wgt id='2002'> +1.3712760e+02 </wgt>
<wgt id='2003'> +1.3790101e+02 </wgt>
<wgt id='2004'> +1.3743148e+02 </wgt>
<wgt id='2005'> +1.3733171e+02 </wgt>
<wgt id='2006'> +1.3793863e+02 </wgt>
<wgt id='2007'> +1.3785329e+02 </wgt>
<wgt id='2008'> +1.3754413e+02 </wgt>
<wgt id='2009'> +1.3721744e+02 </wgt>
<wgt id='2010'> +1.3809601e+02 </wgt>
<wgt id='2011'> +1.4003591e+02 </wgt>
<wgt id='2012'> +1.3544040e+02 </wgt>
<wgt id='2013'> +1.3666994e+02 </wgt>
<wgt id='2014'> +1.3857195e+02 </wgt>
<wgt id='2015'> +1.3571907e+02 </wgt>
<wgt id='2016'> +1.3942914e+02 </wgt>
<wgt id='2017'> +1.3498288e+02 </wgt>
<wgt id='2018'> +1.3929203e+02 </wgt>
<wgt id='2019'> +1.3767040e+02 </wgt>
<wgt id='2020'> +1.3796480e+02 </wgt>
<wgt id='2021'> +1.3739154e+02 </wgt>
<wgt id='2022'> +1.3797928e+02 </wgt>
<wgt id='2023'> +1.3749229e+02 </wgt>
<wgt id='2024'> +1.3741406e+02 </wgt>
<wgt id='2025'> +1.3686027e+02 </wgt>
<wgt id='2026'> +1.3748260e+02 </wgt>
<wgt id='2027'> +1.3793351e+02 </wgt>
<wgt id='2028'> +1.3649959e+02 </wgt>
<wgt id='2029'> +1.3891952e+02 </wgt>
<wgt id='2030'> +1.3809193e+02 </wgt>
<wgt id='2031'> +1.3852953e+02 </wgt>
<wgt id='2032'> +1.4802191e+02 </wgt>
<wgt id='2033'> +1.2787624e+02 </wgt>
<wgt id='2034'> +1.2806023e+02 </wgt>
<wgt id='2035'> +1.2768549e+02 </wgt>
<wgt id='2036'> +1.2745338e+02 </wgt>
<wgt id='2037'> +1.2829228e+02 </wgt>
<wgt id='2038'> +1.2750953e+02 </wgt>
<wgt id='2039'> +1.2823502e+02 </wgt>
<wgt id='2040'> +1.2667053e+02 </wgt>
<wgt id='2041'> +1.2906136e+02 </wgt>
<wgt id='2042'> +1.2876976e+02 </wgt>
<wgt id='2043'> +1.2697781e+02 </wgt>
<wgt id='2044'> +1.2831533e+02 </wgt>
<wgt id='2045'> +1.2743210e+02 </wgt>
<wgt id='2046'> +1.2765711e+02 </wgt>
<wgt id='2047'> +1.2808128e+02 </wgt>
<wgt id='2048'> +1.2770756e+02 </wgt>
<wgt id='2049'> +1.2792142e+02 </wgt>
<wgt id='2050'> +1.2738126e+02 </wgt>
<wgt id='2051'> +1.2837262e+02 </wgt>
<wgt id='2052'> +1.2860122e+02 </wgt>
<wgt id='2053'> +1.2716682e+02 </wgt>
<wgt id='2054'> +1.2545012e+02 </wgt>
<wgt id='2055'> +1.3043765e+02 </wgt>
<wgt id='2056'> +1.2540420e+02 </wgt>
<wgt id='2057'> +1.3027150e+02 </wgt>
<wgt id='2058'> +1.2755523e+02 </wgt>
<wgt id='2059'> +1.2771253e+02 </wgt>
<wgt id='2060'> +1.2633315e+02 </wgt>
<wgt id='2061'> +1.2810927e+02 </wgt>
<wgt id='2062'> +1.2780208e+02 </wgt>
<wgt id='2063'> +1.2803225e+02 </wgt>
<wgt id='2064'> +1.2792173e+02 </wgt>
<wgt id='2065'> +1.2835459e+02 </wgt>
<wgt id='2066'> +1.2773272e+02 </wgt>
<wgt id='2067'> +1.2289197e+02 </wgt>
<wgt id='2068'> +1.3015998e+02 </wgt>
<wgt id='2069'> +1.2760902e+02 </wgt>
<wgt id='2070'> +1.2819202e+02 </wgt>
<wgt id='2071'> +1.2640615e+02 </wgt>
<wgt id='2072'> +1.2575642e+02 </wgt>
<wgt id='2073'> +1.2728801e+02 </wgt>
<wgt id='2074'> +1.3020417e+02 </wgt>
<wgt id='2075'> +1.3360426e+02 </wgt>
<wgt id='2076'> +1.1121470e+02 </wgt>
<wgt id='2077'> +1.1117396e+02 </wgt>
<wgt id='2078'> +1.1113316e+02 </wgt>
<wgt id='2079'> +1.1109266e+02 </wgt>
<wgt id='2080'> +1.1105206e+02 </wgt>
<wgt id='2081'> +1.1101127e+02 </wgt>
<wgt id='2082'> +1.1097077e+02 </wgt>
<wgt id='2083'> +1.1093019e+02 </wgt>
<wgt id='2084'> +1.1088970e+02 </wgt>
<wgt id='2085'> +1.1084865e+02 </wgt>
<wgt id='2086'> +1.1080818e+02 </wgt>
<wgt id='2087'> +1.1076779e+02 </wgt>
<wgt id='2088'> +1.1072674e+02 </wgt>
<wgt id='2089'> +1.1068635e+02 </wgt>
<wgt id='2090'> +1.1064592e+02 </wgt>
<wgt id='2091'> +1.1060490e+02 </wgt>
<wgt id='2092'> +1.1056444e+02 </wgt>
<wgt id='2093'> +1.1052397e+02 </wgt>
<wgt id='2094'> +1.1048358e+02 </wgt>
<wgt id='2095'> +1.1044280e+02 </wgt>
<wgt id='2096'> +1.1040215e+02 </wgt>
<wgt id='2097'> +1.1036177e+02 </wgt>
<wgt id='2098'> +1.1032082e+02 </wgt>
<wgt id='2099'> +1.1028035e+02 </wgt>
<wgt id='2100'> +1.1023984e+02 </wgt>
<wgt id='2101'> +1.1019906e+02 </wgt>
<wgt id='2102'> +1.1015849e+02 </wgt>
<wgt id='2103'> +1.1011804e+02 </wgt>
<wgt id='2104'> +1.1007772e+02 </wgt>
<wgt id='2105'> +1.1003663e+02 </wgt>
<wgt id='2106'> +1.0999625e+02 </wgt>
<wgt id='2107'> +1.1268558e+02 </wgt>
<wgt id='2108'> +1.1289591e+02 </wgt>
<wgt id='2109'> +1.1258970e+02 </wgt>
<wgt id='2110'> +1.1283810e+02 </wgt>
<wgt id='2111'> +1.1321955e+02 </wgt>
<wgt id='2112'> +1.1287257e+02 </wgt>
<wgt id='2113'> +1.1267253e+02 </wgt>
<wgt id='2114'> +1.1273643e+02 </wgt>
<wgt id='2115'> +1.1282665e+02 </wgt>
<wgt id='2116'> +1.1277052e+02 </wgt>
<wgt id='2117'> +1.1233345e+02 </wgt>
<wgt id='2118'> +1.1301767e+02 </wgt>
<wgt id='2119'> +1.1293778e+02 </wgt>
<wgt id='2120'> +1.1292388e+02 </wgt>
<wgt id='2121'> +1.1303238e+02 </wgt>
<wgt id='2122'> +1.1398922e+02 </wgt>
<wgt id='2123'> +1.1211578e+02 </wgt>
<wgt id='2124'> +1.1252533e+02 </wgt>
<wgt id='2125'> +1.1370910e+02 </wgt>
<wgt id='2126'> +1.1132313e+02 </wgt>
<wgt id='2127'> +1.1196938e+02 </wgt>
<wgt id='2128'> +1.1333368e+02 </wgt>
<wgt id='2129'> +1.1101254e+02 </wgt>
<wgt id='2130'> +1.1304663e+02 </wgt>
<wgt id='2131'> +1.1383389e+02 </wgt>
<wgt id='2132'> +1.1245883e+02 </wgt>
<wgt id='2133'> +1.1231184e+02 </wgt>
<wgt id='2134'> +1.1283051e+02 </wgt>
<wgt id='2135'> +1.1219451e+02 </wgt>
<wgt id='2136'> +1.1195600e+02 </wgt>
<wgt id='2137'> +1.1256219e+02 </wgt>
<wgt id='2138'> +1.1185553e+02 </wgt>
<wgt id='2139'> +1.1269622e+02 </wgt>
<wgt id='2140'> +1.1173602e+02 </wgt>
<wgt id='2141'> +1.1230179e+02 </wgt>
<wgt id='2142'> +1.1256458e+02 </wgt>
<wgt id='2143'> +1.1319204e+02 </wgt>
<wgt id='2144'> +1.1249843e+02 </wgt>
<wgt id='2145'> +1.1284259e+02 </wgt>
<wgt id='2146'> +1.1288518e+02 </wgt>
<wgt id='2147'> +1.1223319e+02 </wgt>
<wgt id='2148'> +1.1256782e+02 </wgt>
<wgt id='2149'> +1.1234194e+02 </wgt>
<wgt id='2150'> +1.1241483e+02 </wgt>
<wgt id='2151'> +1.1254221e+02 </wgt>
<wgt id='2152'> +1.1299798e+02 </wgt>
<wgt id='2153'> +1.1243877e+02 </wgt>
<wgt id='2154'> +1.1163314e+02 </wgt>
<wgt id='2155'> +1.1254735e+02 </wgt>
<wgt id='2156'> +1.1269057e+02 </wgt>
<wgt id='2157'> +1.1283427e+02 </wgt>
<wgt id='2158'> +1.1275336e+02 </wgt>
<wgt id='2159'> +1.1282093e+02 </wgt>
<wgt id='2160'> +1.1280808e+02 </wgt>
<wgt id='2161'> +1.1255059e+02 </wgt>
<wgt id='2162'> +1.1286165e+02 </wgt>
<wgt id='2163'> +1.1299777e+02 </wgt>
<wgt id='2164'> +1.1236977e+02 </wgt>
<wgt id='2165'> +1.1248359e+02 </wgt>
<wgt id='2166'> +1.1252867e+02 </wgt>
<wgt id='2167'> +1.1295259e+02 </wgt>
<wgt id='2168'> +1.1236786e+02 </wgt>
<wgt id='2169'> +1.1265173e+02 </wgt>
<wgt id='2170'> +1.1274448e+02 </wgt>
<wgt id='2171'> +1.1228298e+02 </wgt>
<wgt id='2172'> +1.1357973e+02 </wgt>
<wgt id='2173'> +1.1225495e+02 </wgt>
<wgt id='2174'> +1.1289131e+02 </wgt>
<wgt id='2175'> +1.1311182e+02 </wgt>
<wgt id='2176'> +1.1272319e+02 </wgt>
<wgt id='2177'> +1.1264515e+02 </wgt>
<wgt id='2178'> +1.1277706e+02 </wgt>
<wgt id='2179'> +1.1309303e+02 </wgt>
<wgt id='2180'> +1.1256204e+02 </wgt>
<wgt id='2181'> +1.1274775e+02 </wgt>
<wgt id='2182'> +1.1260196e+02 </wgt>
<wgt id='2183'> +1.1264413e+02 </wgt>
<wgt id='2184'> +1.1273293e+02 </wgt>
<wgt id='2185'> +1.1247920e+02 </wgt>
<wgt id='2186'> +1.1240117e+02 </wgt>
<wgt id='2187'> +1.1293224e+02 </wgt>
<wgt id='2188'> +1.1279784e+02 </wgt>
<wgt id='2189'> +1.1273692e+02 </wgt>
<wgt id='2190'> +1.1261921e+02 </wgt>
<wgt id='2191'> +1.1259276e+02 </wgt>
<wgt id='2192'> +1.1263340e+02 </wgt>
<wgt id='2193'> +1.1272057e+02 </wgt>
<wgt id='2194'> +1.1259472e+02 </wgt>
<wgt id='2195'> +1.1270475e+02 </wgt>
<wgt id='2196'> +1.1272408e+02 </wgt>
<wgt id='2197'> +1.1262706e+02 </wgt>
<wgt id='2198'> +1.1265313e+02 </wgt>
<wgt id='2199'> +1.1261849e+02 </wgt>
<wgt id='2200'> +1.1271379e+02 </wgt>
<wgt id='2201'> +1.1251063e+02 </wgt>
<wgt id='2202'> +1.1268667e+02 </wgt>
<wgt id='2203'> +1.1277592e+02 </wgt>
<wgt id='2204'> +1.1268609e+02 </wgt>
<wgt id='2205'> +1.1259184e+02 </wgt>
<wgt id='2206'> +1.1262330e+02 </wgt>
<wgt id='2207'> +1.1267734e+02 </wgt>
<wgt id='2208'> +1.1268545e+02 </wgt>
<wgt id='2209'> +1.1268486e+02 </wgt>
<wgt id='2210'> +1.1268570e+02 </wgt>
<wgt id='2211'> +1.1268573e+02 </wgt>
<wgt id='2212'> +1.1268592e+02 </wgt>
<wgt id='2213'> +1.1268563e+02 </wgt>
<wgt id='2214'> +1.1268508e+02 </wgt>
<wgt id='2215'> +1.1503075e+02 </wgt>
<wgt id='2216'> +1.0909426e+02 </wgt>
<wgt id='2217'> +1.1022205e+02 </wgt>
<wgt id='2218'> +1.1628950e+02 </wgt>
<wgt id='2219'> +1.1854935e+02 </wgt>
<wgt id='2220'> +1.2165953e+02 </wgt>
<wgt id='2221'> +1.1132906e+02 </wgt>
<wgt id='2222'> +1.1909118e+02 </wgt>
<wgt id='2223'> +1.1437458e+02 </wgt>
<wgt id='2224'> +1.1608451e+02 </wgt>
<wgt id='2225'> +1.1914170e+02 </wgt>
<wgt id='2226'> +1.1413956e+02 </wgt>
<wgt id='2227'> +1.1436115e+02 </wgt>
<wgt id='2228'> +1.1774685e+02 </wgt>
<wgt id='2229'> +1.1577406e+02 </wgt>
<wgt id='2230'> +1.1440486e+02 </wgt>
<wgt id='2231'> +1.1465695e+02 </wgt>
<wgt id='2232'> +1.1356463e+02 </wgt>
<wgt id='2233'> +1.1059911e+02 </wgt>
<wgt id='2234'> +1.1430737e+02 </wgt>
<wgt id='2235'> +1.1987321e+02 </wgt>
<wgt id='2236'> +1.1623224e+02 </wgt>
<wgt id='2237'> +1.1732136e+02 </wgt>
<wgt id='2238'> +1.1849190e+02 </wgt>
<wgt id='2239'> +1.2148943e+02 </wgt>
<wgt id='2240'> +1.1574315e+02 </wgt>
<wgt id='2241'> +1.1847674e+02 </wgt>
<wgt id='2242'> +1.1493493e+02 </wgt>
<wgt id='2243'> +1.1569895e+02 </wgt>
<wgt id='2244'> +1.1466314e+02 </wgt>
<wgt id='2245'> +1.1797724e+02 </wgt>
<wgt id='2246'> +1.1988850e+02 </wgt>
<wgt id='2247'> +1.1973290e+02 </wgt>
<wgt id='2248'> +1.1660606e+02 </wgt>
<wgt id='2249'> +1.1535799e+02 </wgt>
<wgt id='2250'> +1.1962391e+02 </wgt>
<wgt id='2251'> +1.1347650e+02 </wgt>
<wgt id='2252'> +1.1423687e+02 </wgt>
<wgt id='2253'> +1.1620498e+02 </wgt>
<wgt id='2254'> +1.1236834e+02 </wgt>
<wgt id='2255'> +1.1555607e+02 </wgt>
<wgt id='2256'> +1.1062303e+02 </wgt>
<wgt id='2257'> +1.1427830e+02 </wgt>
<wgt id='2258'> +1.1814469e+02 </wgt>
<wgt id='2259'> +1.1415800e+02 </wgt>
<wgt id='2260'> +1.1447790e+02 </wgt>
<wgt id='2261'> +1.0985843e+02 </wgt>
<wgt id='2262'> +1.1190841e+02 </wgt>
<wgt id='2263'> +1.1488123e+02 </wgt>
<wgt id='2264'> +1.1757641e+02 </wgt>
<wgt id='2265'> +1.1344629e+02 </wgt>
<wgt id='2266'> +1.1373378e+02 </wgt>
<wgt id='2267'> +1.1562204e+02 </wgt>
<wgt id='2268'> +1.2155546e+02 </wgt>
<wgt id='2269'> +1.1493516e+02 </wgt>
<wgt id='2270'> +1.1630853e+02 </wgt>
<wgt id='2271'> +1.0981224e+02 </wgt>
<wgt id='2272'> +1.0900516e+02 </wgt>
<wgt id='2273'> +1.1266207e+02 </wgt>
<wgt id='2274'> +1.1593081e+02 </wgt>
<wgt id='2275'> +1.1690111e+02 </wgt>
<wgt id='2276'> +1.1441741e+02 </wgt>
<wgt id='2277'> +1.1325368e+02 </wgt>
<wgt id='2278'> +1.1503812e+02 </wgt>
<wgt id='2279'> +1.0711915e+02 </wgt>
<wgt id='2280'> +1.1836462e+02 </wgt>
<wgt id='2281'> +1.1711417e+02 </wgt>
<wgt id='2282'> +1.1766165e+02 </wgt>
<wgt id='2283'> +1.1719733e+02 </wgt>
<wgt id='2284'> +1.2017148e+02 </wgt>
<wgt id='2285'> +1.1524801e+02 </wgt>
<wgt id='2286'> +1.1476309e+02 </wgt>
<wgt id='2287'> +1.1583747e+02 </wgt>
<wgt id='2288'> +1.1047034e+02 </wgt>
<wgt id='2289'> +1.1732900e+02 </wgt>
<wgt id='2290'> +1.1227697e+02 </wgt>
<wgt id='2291'> +1.1739019e+02 </wgt>
<wgt id='2292'> +1.1537191e+02 </wgt>
<wgt id='2293'> +1.1427905e+02 </wgt>
<wgt id='2294'> +1.1526863e+02 </wgt>
<wgt id='2295'> +1.1665580e+02 </wgt>
<wgt id='2296'> +1.1577953e+02 </wgt>
<wgt id='2297'> +1.1812830e+02 </wgt>
<wgt id='2298'> +1.0981070e+02 </wgt>
<wgt id='2299'> +1.1464105e+02 </wgt>
<wgt id='2300'> +1.1335340e+02 </wgt>
<wgt id='2301'> +1.1072945e+02 </wgt>
<wgt id='2302'> +1.1198101e+02 </wgt>
<wgt id='2303'> +1.1343680e+02 </wgt>
<wgt id='2304'> +1.0866975e+02 </wgt>
<wgt id='2305'> +1.1684113e+02 </wgt>
<wgt id='2306'> +1.1435024e+02 </wgt>
<wgt id='2307'> +1.2026814e+02 </wgt>
<wgt id='2308'> +1.1301714e+02 </wgt>
<wgt id='2309'> +1.1183714e+02 </wgt>
<wgt id='2310'> +1.1006382e+02 </wgt>
<wgt id='2311'> +1.1614317e+02 </wgt>
<wgt id='2312'> +1.1576030e+02 </wgt>
<wgt id='2313'> +1.1693858e+02 </wgt>
<wgt id='2314'> +1.1196841e+02 </wgt>
<wgt id='2315'> +1.0898871e+02 </wgt>
<wgt id='2316'> +1.1256763e+02 </wgt>
<wgt id='2317'> +1.1713174e+02 </wgt>
<wgt id='2318'> +1.1306805e+02 </wgt>
<wgt id='2319'> +1.3289137e+02 </wgt>
<wgt id='2320'> +1.6581531e+02 </wgt>
<wgt id='2321'> +1.1656107e+02 </wgt>
<wgt id='2322'> +1.5518912e+02 </wgt>
</rwgt>
</event>
<event>
13      1 +1.1579678e+02 2.69778500e+02 7.81859000e-03 1.01436500e-01
       -2 -1    0    0    0  501 +0.0000000000e+00 +0.0000000000e+00 +7.8142608297e+01 7.8142608297e+01 0.0000000000e+00 0.0000e+00 -1.0000e+00
        2 -1    0    0  502    0 +0.0000000000e+00 +0.0000000000e+00 -1.0327219045e+03 1.0327219045e+03 0.0000000000e+00 0.0000e+00 1.0000e+00
        6  2    1    2  502    0 +1.9859590493e+02 -7.2970477784e+01 -6.1340602019e+02 6.7047014067e+02 1.6881421692e+02 0.0000e+00 0.0000e+00
        5  1    3    3  502    0 -1.4416050142e+01 +7.3350009226e+00 -1.2109526682e+02 1.2217073457e+02 0.0000000000e+00 0.0000e+00 -1.0000e+00
       24  2    3    3    0    0 +2.1301195508e+02 -8.0305478707e+01 -4.9231075338e+02 5.4829940610e+02 8.0245236119e+01 0.0000e+00 0.0000e+00
      -15  1    5    5    0    0 +4.4332775492e+01 -9.6505273211e+00 -1.8683805522e+02 1.9226800706e+02 0.0000000000e+00 0.0000e+00 1.0000e+00
       16  1    5    5    0    0 +1.6867917958e+02 -7.0654951386e+01 -3.0547269815e+02 3.5603139903e+02 0.0000000000e+00 0.0000e+00 -1.0000e+00
       -6  2    1    2    0  503 -1.8665971240e+02 +7.7004286057e+01 -3.2715395088e+02 4.2154534620e+02 1.7291403362e+02 0.0000e+00 0.0000e+00
       -5  1    8    8    0  503 -1.9159035061e+00 +6.0955319841e+01 -8.7036855635e+01 1.0627622473e+02 0.0000000000e+00 0.0000e+00 1.0000e+00
      -24  2    8    8    0    0 -1.8474380889e+02 +1.6048966215e+01 -2.4011709524e+02 3.1526912147e+02 8.5735379423e+01 0.0000e+00 0.0000e+00
       11  1   10   10    0    0 -1.8977241193e+02 +2.3324114410e+01 -2.1055927848e+02 2.8441658249e+02 0.0000000000e+00 0.0000e+00 -1.0000e+00
      -12  1   10   10    0    0 +5.0286030363e+00 -7.2751481947e+00 -2.9557816760e+01 3.0852538977e+01 0.0000000000e+00 0.0000e+00 1.0000e+00
       21  1    1    2  503  501 -1.1936192538e+01 -4.0338082726e+00 -1.4019325129e+01 1.8849025932e+01 0.0000000000e+00 0.0000e+00 -1.0000e+00
<scales pt_clust_1="13000.0" pt_clust_2="13000.0" pt_clust_3="13000.0" pt_clust_4="13000.0" pt_clust_5="13000.0" pt_clust_6="13000.0" pt_clust_7="11.29974"></scales>
<mgrwt>
<rscale>  2 0.26977849e+03</rscale>
<asrwt>  1 0.11299741e+02</asrwt>
<pdfrwt beam="1">  1        2 0.15888028e+00 0.26977849e+03</pdfrwt>
<pdfrwt beam="2">  2       -2       -2 0.12021941e-01 0.11517255e-01 0.11299741e+02 0.26977849e+03</pdfrwt>
<totfact> 0.25936809e+00</totfact>
</mgrwt>
<clustering>
<clus scale="   11.300">  1  5  2 -1</clus>
<clus scale="  469.019">  3  4 -1 -1</clus>
<clus scale="  269.778">  2  3  1 -1</clus>
</clustering>
<rwgt>
<wgt id='reference_point'> +1.1579678e+02 </wgt>
<wgt id='eftrwgt0_ctg_-0.754_cqq83_2.978_cqq81_11.175_cqu8_-0.722_cqd8_-22.551_ctq8_11.076_ctu8_-15.131_ctd8_20.128_cqq13_0.321_cqq11_-6.675_cqu1_-3.516_cqd1_6.151_ctq1_5.402_ctu1_-8.742_ctd1_5.367'> +4.9608095e+01 </wgt>
<wgt id='eftrwgt1_ctg_-1.195_cqq83_-15.761_cqq81_-4.235_cqu8_-15.499_cqd8_-10.228_ctq8_-0.966_ctu8_-17.272_ctd8_-16.58_cqq13_-4.893_cqq11_4.278_cqu1_-0.839_cqd1_-4.333_ctq1_2.613_ctu1_-1.417_ctd1_-2.816'> +1.5269995e+01 </wgt>
<wgt id='eftrwgt2_ctg_-1.383_cqq83_5.883_cqq81_-5.515_cqu8_2.394_cqd8_-9.03_ctq8_-0.054_ctu8_-11.517_ctd8_-10.825_cqq13_-0.011_cqq11_4.192_cqu1_6.747_cqd1_8.549_ctq1_7.513_ctu1_-7.841_ctd1_7.605'> +6.4139892e+01 </wgt>
<wgt id='eftrwgt3_ctg_0.83_cqq83_7.564_cqq81_-4.758_cqu8_11.03_cqd8_2.018_ctq8_13.609_ctu8_6.693_ctd8_12.801_cqq13_1.059_cqq11_-4.128_cqu1_0.962_cqd1_4.274_ctq1_8.055_ctu1_-10.409_ctd1_-1.438'> +4.2486538e+01 </wgt>
<wgt id='eftrwgt4_ctg_0.635_cqq83_-11.713_cqq81_0.383_cqu8_10.984_cqd8_-20.924_ctq8_-2.091_ctu8_5.555_ctd8_1.514_cqq13_3.429_cqq11_-0.162_cqu1_-10.649_cqd1_5.475_ctq1_5.872_ctu1_-1.687_ctd1_-8.071'> +4.1337448e+01 </wgt>
<wgt id='eftrwgt5_ctg_0.29_cqq83_4.054_cqq81_-1.527_cqu8_-4.305_cqd8_-20.381_ctq8_12.02_ctu8_-17.198_ctd8_4.416_cqq13_-0.765_cqq11_-1.818_cqu1_-0.276_cqd1_12.045_ctq1_-6.626_ctu1_4.803_ctd1_5.994'> +7.3682340e+01 </wgt>
<wgt id='eftrwgt6_ctg_0.363_cqq83_-5.38_cqq81_10.485_cqu8_-11.932_cqd8_-4.948_ctq8_9.185_ctu8_-12.064_ctd8_17.315_cqq13_-0.222_cqq11_-6.441_cqu1_-7.804_cqd1_-9.036_ctq1_-7.458_ctu1_9.293_ctd1_3.977'> +1.3148820e+02 </wgt>
<wgt id='eftrwgt7_ctg_-1.197_cqq83_-4.451_cqq81_7.597_cqu8_-7.443_cqd8_22.122_ctq8_3.031_ctu8_-12.259_ctd8_16.154_cqq13_-6.717_cqq11_-0.945_cqu1_5.096_cqd1_2.249_ctq1_-0.68_ctu1_-7.751_ctd1_8.44'> +4.2103761e+01 </wgt>
<wgt id='eftrwgt8_ctg_0.542_cqq83_-14.102_cqq81_-2.643_cqu8_18.837_cqd8_-13.941_ctq8_-13.421_ctu8_13.125_ctd8_-6.068_cqq13_-0.748_cqq11_-1.138_cqu1_3.707_cqd1_-4.4_ctq1_2.065_ctu1_5.13_ctd1_4.025'> +2.0907300e+01 </wgt>
<wgt id='eftrwgt9_ctg_1.074_cqq83_4.736_cqq81_-13.002_cqu8_-15.389_cqd8_0.91_ctq8_-9.328_ctu8_7.624_ctd8_-22.019_cqq13_3.75_cqq11_-2.977_cqu1_-3.02_cqd1_-13.923_ctq1_-7.186_ctu1_2.633_ctd1_-7.896'> +2.0325178e+01 </wgt>
<wgt id='eftrwgt10_ctg_1.238_cqq83_-17.533_cqq81_12.633_cqu8_3.116_cqd8_9.117_ctq8_-4.456_ctu8_0.149_ctd8_15.76_cqq13_-4.569_cqq11_4.155_cqu1_6.051_cqd1_-8.105_ctq1_0.824_ctu1_0.75_ctd1_6.587'> +2.4475112e-01 </wgt>
<wgt id='eftrwgt11_ctg_-1.233_cqq83_-17.319_cqq81_-5.312_cqu8_16.53_cqd8_-9.607_ctq8_-3.402_ctu8_-16.447_ctd8_-22.15_cqq13_-0.265_cqq11_4.394_cqu1_-0.387_cqd1_0.421_ctq1_2.017_ctu1_-6.772_ctd1_6.873'> +4.3832696e+01 </wgt>
<wgt id='eftrwgt12_ctg_0.408_cqq83_-9.97_cqq81_3.05_cqu8_8.428_cqd8_-10.45_ctq8_-4.549_ctu8_7.41_ctd8_-18.252_cqq13_4.276_cqq11_0.305_cqu1_-4.657_cqd1_-5.86_ctq1_4.293_ctu1_-6.686_ctd1_-6.47'> +3.8247256e+01 </wgt>
<wgt id='eftrwgt13_ctg_1.091_cqq83_16.651_cqq81_9.034_cqu8_-17.068_cqd8_-16.41_ctq8_5.505_ctu8_-6.023_ctd8_-19.606_cqq13_-1.427_cqq11_2.94_cqu1_-7.645_cqd1_-9.373_ctq1_-6.218_ctu1_1.987_ctd1_-10.94'> +1.0300392e+02 </wgt>
<wgt id='eftrwgt14_ctg_-0.901_cqq83_-3.298_cqq81_-0.028_cqu8_-17.181_cqd8_-17.858_ctq8_-13.488_ctu8_-10.256_ctd8_-0.921_cqq13_4.443_cqq11_-0.633_cqu1_-9.228_cqd1_11.328_ctq1_-0.213_ctu1_-0.551_ctd1_-5.789'> +1.3393460e+01 </wgt>
<wgt id='eftrwgt15_ctg_1.026_cqq83_10.852_cqq81_-7.218_cqu8_6.384_cqd8_16.276_ctq8_-4.737_ctu8_-13.404_ctd8_1.733_cqq13_7.315_cqq11_-8.101_cqu1_-2.738_cqd1_7.548_ctq1_8.479_ctu1_-6.738_ctd1_-5.539'> +3.0206043e+01 </wgt>
<wgt id='eftrwgt16_ctg_-0.132_cqq83_-16.656_cqq81_4.305_cqu8_-12.062_cqd8_4.31_ctq8_13.615_ctu8_3.27_ctd8_11.552_cqq13_-1.799_cqq11_7.423_cqu1_6.843_cqd1_13.535_ctq1_0.146_ctu1_7.054_ctd1_9.686'> +1.8234714e+01 </wgt>
<wgt id='eftrwgt17_ctg_0.712_cqq83_-6.61_cqq81_-4.301_cqu8_-1.403_cqd8_6.303_ctq8_-4.86_ctu8_3.128_ctd8_-14.844_cqq13_0.039_cqq11_-4.957_cqu1_2.629_cqd1_-12.532_ctq1_4.939_ctu1_-4.209_ctd1_-3.655'> +1.6422494e+00 </wgt>
<wgt id='eftrwgt18_ctg_-1.35_cqq83_-11.68_cqq81_4.439_cqu8_13.372_cqd8_-0.653_ctq8_5.688_ctu8_0.67_ctd8_-7.709_cqq13_-5.475_cqq11_-5.399_cqu1_3.601_cqd1_-8.439_ctq1_1.117_ctu1_-0.006_ctd1_13.614'> +4.6542490e+01 </wgt>
<wgt id='eftrwgt19_ctg_0.098_cqq83_15.517_cqq81_-5.712_cqu8_-4.013_cqd8_-7.836_ctq8_-1.046_ctu8_-12.063_ctd8_6.039_cqq13_-3.557_cqq11_7.181_cqu1_6.996_cqd1_-3.116_ctq1_1.869_ctu1_1.545_ctd1_-10.959'> +2.5509606e+01 </wgt>
<wgt id='eftrwgt20_ctg_0.401_cqq83_8.943_cqq81_9.36_cqu8_14.22_cqd8_-14.886_ctq8_8.313_ctu8_5.302_ctd8_-10.568_cqq13_-2.406_cqq11_5.185_cqu1_-6.752_cqd1_-3.344_ctq1_-0.322_ctu1_-1.749_ctd1_2.241'> +6.2281688e+01 </wgt>
<wgt id='eftrwgt21_ctg_0.263_cqq83_-7.003_cqq81_9.705_cqu8_13.582_cqd8_19.058_ctq8_12.946_ctu8_6.424_ctd8_17.248_cqq13_-4.887_cqq11_-3.405_cqu1_10.633_cqd1_-6.948_ctq1_5.694_ctu1_-6.922_ctd1_1.277'> +3.4607720e+01 </wgt>
<wgt id='eftrwgt22_ctg_0.627_cqq83_-17.281_cqq81_-4.961_cqu8_16.938_cqd8_22.735_ctq8_-1.208_ctu8_-3.511_ctd8_-5.122_cqq13_5.387_cqq11_-4.565_cqu1_7.804_cqd1_11.098_ctq1_-1.5_ctu1_8.736_ctd1_13.194'> +9.0704504e+00 </wgt>
<wgt id='eftrwgt23_ctg_-0.648_cqq83_15.811_cqq81_12.009_cqu8_-18.949_cqd8_0.783_ctq8_-3.059_ctu8_-17.702_ctd8_-6.711_cqq13_-4.356_cqq11_3.652_cqu1_-8.368_cqd1_-4.016_ctq1_2.411_ctu1_3.109_ctd1_4.001'> +4.6938015e+01 </wgt>
<wgt id='eftrwgt24_ctg_0.279_cqq83_3.419_cqq81_-12.348_cqu8_-3.685_cqd8_-7.428_ctq8_10.986_ctu8_-5.15_ctd8_-17.732_cqq13_-2.497_cqq11_-5.647_cqu1_0.002_cqd1_-4.035_ctq1_-3.93_ctu1_-1.854_ctd1_8.352'> +7.9004478e+01 </wgt>
<wgt id='eftrwgt25_ctg_1.257_cqq83_8.7_cqq81_-13.787_cqu8_1.396_cqd8_-4.553_ctq8_0.437_ctu8_6.957_ctd8_15.293_cqq13_7.476_cqq11_-5.974_cqu1_-3.383_cqd1_-2.371_ctq1_-0.219_ctu1_2.622_ctd1_-7.856'> +2.7121832e+00 </wgt>
<wgt id='eftrwgt26_ctg_-1.323_cqq83_-5.612_cqq81_0.616_cqu8_6.632_cqd8_-3.336_ctq8_13.782_ctu8_-3.939_ctd8_-15.742_cqq13_2.848_cqq11_5.501_cqu1_-1.125_cqd1_-13.284_ctq1_-0.806_ctu1_-0.98_ctd1_-3.316'> +3.2689186e+01 </wgt>
<wgt id='eftrwgt27_ctg_-1.062_cqq83_-5.785_cqq81_-3.069_cqu8_7.318_cqd8_-18.47_ctq8_-5.182_ctu8_-7.369_ctd8_-7.449_cqq13_-0.119_cqq11_-7.366_cqu1_-4.956_cqd1_-13.113_ctq1_-1.612_ctu1_-8.864_ctd1_-9.975'> +4.0349572e+01 </wgt>
<wgt id='eftrwgt28_ctg_0.241_cqq83_-10.317_cqq81_-13.275_cqu8_-8.248_cqd8_-17.794_ctq8_-12.823_ctu8_-16.47_ctd8_-4.449_cqq13_-2.362_cqq11_4.11_cqu1_-10.775_cqd1_-8.582_ctq1_2.037_ctu1_-10.4_ctd1_1.059'> +4.7492430e+01 </wgt>
<wgt id='eftrwgt29_ctg_0.186_cqq83_-14.559_cqq81_-7.088_cqu8_-18.724_cqd8_-0.974_ctq8_-0.831_ctu8_6.546_ctd8_-21.38_cqq13_-1.637_cqq11_2.85_cqu1_2.42_cqd1_-0.935_ctq1_-8.07_ctu1_5.575_ctd1_0.549'> +2.8578707e+01 </wgt>
<wgt id='eftrwgt30_ctg_-1.395_cqq83_-10.203_cqq81_12.938_cqu8_3.137_cqd8_11.131_ctq8_9.079_ctu8_-0.374_ctd8_-23.313_cqq13_-4.383_cqq11_-1.0_cqu1_1.541_cqd1_2.342_ctq1_-4.241_ctu1_-4.162_ctd1_-12.306'> +6.1835971e+01 </wgt>
<wgt id='eftrwgt31_ctg_0.115_cqq83_-15.901_cqq81_-6.358_cqu8_-16.907_cqd8_-5.747_ctq8_2.066_ctu8_-12.966_ctd8_-16.328_cqq13_-3.096_cqq11_2.684_cqu1_-8.352_cqd1_-6.211_ctq1_2.511_ctu1_5.799_ctd1_9.554'> +9.6255639e+00 </wgt>
<wgt id='eftrwgt32_ctg_1.117_cqq83_2.704_cqq81_7.787_cqu8_-16.533_cqd8_8.904_ctq8_10.253_ctu8_2.612_ctd8_4.645_cqq13_-5.493_cqq11_2.812_cqu1_-7.509_cqd1_-3.19_ctq1_-6.22_ctu1_5.276_ctd1_5.86'> +9.5594795e+01 </wgt>
<wgt id='eftrwgt33_ctg_0.209_cqq83_-8.091_cqq81_-11.607_cqu8_-16.123_cqd8_-8.064_ctq8_-3.29_ctu8_-14.767_ctd8_-13.018_cqq13_-5.739_cqq11_0.542_cqu1_-1.411_cqd1_-8.179_ctq1_-5.997_ctu1_-7.343_ctd1_12.169'> +6.4150451e+01 </wgt>
<wgt id='eftrwgt34_ctg_-1.122_cqq83_6.387_cqq81_-1.268_cqu8_-5.867_cqd8_-9.336_ctq8_-2.052_ctu8_-17.13_ctd8_21.742_cqq13_0.581_cqq11_5.886_cqu1_-10.133_cqd1_-11.29_ctq1_-6.71_ctu1_3.942_ctd1_9.713'> +3.3643338e+00 </wgt>
<wgt id='eftrwgt35_ctg_-1.321_cqq83_10.781_cqq81_5.96_cqu8_-16.967_cqd8_5.511_ctq8_-3.29_ctu8_-3.816_ctd8_-14.387_cqq13_-5.938_cqq11_-2.941_cqu1_-5.98_cqd1_11.576_ctq1_0.788_ctu1_10.277_ctd1_-4.905'> +5.1868450e+01 </wgt>
<wgt id='eftrwgt36_ctg_-0.68_cqq83_-4.656_cqq81_2.64_cqu8_-5.091_cqd8_-6.267_ctq8_12.357_ctu8_4.141_ctd8_8.527_cqq13_4.229_cqq11_-0.357_cqu1_6.729_cqd1_-0.812_ctq1_5.304_ctu1_-6.109_ctd1_-13.243'> +4.8740195e+01 </wgt>
<wgt id='eftrwgt37_ctg_-1.287_cqq83_-9.3_cqq81_-1.066_cqu8_-15.272_cqd8_5.656_ctq8_0.824_ctu8_-7.129_ctd8_-5.439_cqq13_-7.864_cqq11_0.302_cqu1_3.094_cqd1_1.84_ctq1_-4.372_ctu1_-7.563_ctd1_2.217'> +6.6699190e+01 </wgt>
<wgt id='eftrwgt38_ctg_0.789_cqq83_2.618_cqq81_-0.896_cqu8_4.006_cqd8_12.013_ctq8_-9.44_ctu8_-16.781_ctd8_-6.655_cqq13_-5.548_cqq11_2.529_cqu1_7.52_cqd1_-4.256_ctq1_5.745_ctu1_0.798_ctd1_7.829'> +3.5923644e+00 </wgt>
<wgt id='eftrwgt39_ctg_0.721_cqq83_1.632_cqq81_7.373_cqu8_-0.631_cqd8_4.104_ctq8_12.802_ctu8_-10.868_ctd8_-5.968_cqq13_-1.832_cqq11_-3.336_cqu1_-4.17_cqd1_-6.056_ctq1_-3.676_ctu1_5.679_ctd1_-9.027'> +9.5299791e+01 </wgt>
<wgt id='eftrwgt40_ctg_-0.362_cqq83_-1.589_cqq81_6.197_cqu8_-18.27_cqd8_7.832_ctq8_-9.399_ctu8_-6.455_ctd8_10.547_cqq13_-4.378_cqq11_5.514_cqu1_-8.215_cqd1_4.889_ctq1_5.265_ctu1_10.009_ctd1_3.422'> +1.9153968e+01 </wgt>
<wgt id='eftrwgt41_ctg_0.658_cqq83_-10.403_cqq81_3.211_cqu8_-2.337_cqd8_17.509_ctq8_6.996_ctu8_-1.761_ctd8_-2.923_cqq13_7.515_cqq11_-0.097_cqu1_0.074_cqd1_12.92_ctq1_-6.01_ctu1_-8.626_ctd1_2.326'> +5.0236677e+00 </wgt>
<wgt id='eftrwgt42_ctg_0.239_cqq83_-0.972_cqq81_-1.122_cqu8_-17.342_cqd8_-7.199_ctq8_-12.68_ctu8_1.247_ctd8_17.533_cqq13_-6.465_cqq11_-5.436_cqu1_9.489_cqd1_-0.985_ctq1_8.129_ctu1_-5.418_ctd1_5.104'> +7.8720072e+00 </wgt>
<wgt id='eftrwgt43_ctg_-0.649_cqq83_12.017_cqq81_-8.81_cqu8_-11.947_cqd8_-0.617_ctq8_-8.389_ctu8_-11.126_ctd8_-23.747_cqq13_-2.837_cqq11_5.496_cqu1_4.701_cqd1_4.955_ctq1_2.49_ctu1_2.683_ctd1_-7.631'> +1.2405749e+01 </wgt>
<wgt id='eftrwgt44_ctg_0.171_cqq83_12.009_cqq81_1.908_cqu8_4.651_cqd8_-17.53_ctq8_4.385_ctu8_9.354_ctd8_6.605_cqq13_0.349_cqq11_-3.295_cqu1_-5.85_cqd1_-13.524_ctq1_0.629_ctu1_-6.984_ctd1_13.334'> +3.9691771e+01 </wgt>
<wgt id='eftrwgt45_ctg_1.117_cqq83_-1.134_cqq81_0.846_cqu8_-17.819_cqd8_7.834_ctq8_-1.016_ctu8_17.048_ctd8_-16.169_cqq13_3.138_cqq11_-2.054_cqu1_-10.535_cqd1_-6.766_ctq1_2.47_ctu1_6.02_ctd1_11.267'> +9.4756205e+00 </wgt>
<wgt id='eftrwgt46_ctg_0.852_cqq83_-5.375_cqq81_-1.252_cqu8_-6.421_cqd8_17.384_ctq8_4.252_ctu8_6.891_ctd8_10.51_cqq13_-4.608_cqq11_7.589_cqu1_-6.678_cqd1_11.188_ctq1_-3.189_ctu1_-10.063_ctd1_0.955'> +3.1436040e+00 </wgt>
<wgt id='eftrwgt47_ctg_0.672_cqq83_10.633_cqq81_-10.436_cqu8_3.141_cqd8_5.015_ctq8_-11.403_ctu8_-4.418_ctd8_-1.92_cqq13_0.491_cqq11_-8.212_cqu1_-0.701_cqd1_-0.931_ctq1_5.075_ctu1_5.776_ctd1_-9.187'> +3.3478144e+00 </wgt>
<wgt id='eftrwgt48_ctg_0.097_cqq83_-13.235_cqq81_3.083_cqu8_-6.992_cqd8_-21.927_ctq8_-1.972_ctu8_12.828_ctd8_-23.378_cqq13_1.548_cqq11_-7.292_cqu1_-7.809_cqd1_-3.663_ctq1_-0.091_ctu1_3.906_ctd1_0.689'> +1.6103850e+01 </wgt>
<wgt id='eftrwgt49_ctg_1.029_cqq83_-0.471_cqq81_-7.658_cqu8_-14.403_cqd8_16.435_ctq8_-10.202_ctu8_-12.269_ctd8_-13.394_cqq13_-1.09_cqq11_4.914_cqu1_-4.324_cqd1_0.827_ctq1_-4.544_ctu1_-0.962_ctd1_9.864'> +2.9063193e+00 </wgt>
<wgt id='eftrwgt50_ctg_-0.665_cqq83_-14.242_cqq81_-8.115_cqu8_4.63_cqd8_10.452_ctq8_-13.832_ctu8_-13.909_ctd8_-10.071_cqq13_-2.706_cqq11_1.201_cqu1_0.148_cqd1_-0.781_ctq1_-6.102_ctu1_-6.349_ctd1_6.964'> +6.3518256e+01 </wgt>
<wgt id='eftrwgt51_ctg_-0.787_cqq83_-15.261_cqq81_8.809_cqu8_-2.155_cqd8_-17.025_ctq8_-6.971_ctu8_10.751_ctd8_-10.297_cqq13_-0.617_cqq11_7.049_cqu1_-7.986_cqd1_-2.061_ctq1_0.449_ctu1_6.857_ctd1_-13.813'> +2.6746451e+01 </wgt>
<wgt id='eftrwgt52_ctg_0.862_cqq83_17.48_cqq81_4.698_cqu8_8.08_cqd8_9.692_ctq8_3.485_ctu8_11.755_ctd8_-3.559_cqq13_6.645_cqq11_2.713_cqu1_-8.115_cqd1_8.608_ctq1_-6.273_ctu1_7.111_ctd1_5.866'> +6.3753134e+01 </wgt>
<wgt id='eftrwgt53_ctg_-0.903_cqq83_3.892_cqq81_-1.362_cqu8_-12.339_cqd8_-12.919_ctq8_2.258_ctu8_8.165_ctd8_16.95_cqq13_-4.352_cqq11_1.546_cqu1_7.695_cqd1_11.734_ctq1_2.3_ctu1_9.781_ctd1_1.838'> +5.7549638e+00 </wgt>
<wgt id='eftrwgt54_ctg_-0.522_cqq83_-0.949_cqq81_-0.037_cqu8_14.405_cqd8_-4.088_ctq8_-5.643_ctu8_8.684_ctd8_-21.06_cqq13_-6.966_cqq11_-5.093_cqu1_-4.897_cqd1_2.455_ctq1_-3.435_ctu1_3.57_ctd1_-7.932'> +1.1390745e+02 </wgt>
<wgt id='eftrwgt55_ctg_-0.222_cqq83_1.213_cqq81_10.848_cqu8_-14.188_cqd8_-19.129_ctq8_4.966_ctu8_6.833_ctd8_-10.208_cqq13_6.393_cqq11_2.922_cqu1_9.268_cqd1_9.372_ctq1_3.58_ctu1_5.027_ctd1_13.963'> +9.7998209e+01 </wgt>
<wgt id='eftrwgt56_ctg_-0.064_cqq83_-13.896_cqq81_-9.146_cqu8_-12.936_cqd8_6.184_ctq8_-9.142_ctu8_7.671_ctd8_-23.063_cqq13_-5.638_cqq11_0.314_cqu1_3.549_cqd1_13.313_ctq1_7.463_ctu1_-2.827_ctd1_4.274'> +3.2305442e+01 </wgt>
<wgt id='eftrwgt57_ctg_0.55_cqq83_-0.366_cqq81_13.131_cqu8_-11.082_cqd8_-6.326_ctq8_-1.457_ctu8_-10.801_ctd8_-1.042_cqq13_-6.705_cqq11_-3.081_cqu1_2.128_cqd1_13.722_ctq1_-3.878_ctu1_8.438_ctd1_-10.644'> +1.1884139e+02 </wgt>
<wgt id='eftrwgt58_ctg_-0.739_cqq83_-1.927_cqq81_-4.498_cqu8_-7.655_cqd8_-12.724_ctq8_7.311_ctu8_0.6_ctd8_-24.282_cqq13_7.046_cqq11_-1.157_cqu1_2.74_cqd1_1.196_ctq1_0.456_ctu1_10.57_ctd1_6.47'> +2.0166880e+01 </wgt>
<wgt id='eftrwgt59_ctg_-0.809_cqq83_6.461_cqq81_5.164_cqu8_7.348_cqd8_-10.049_ctq8_-9.039_ctu8_11.156_ctd8_17.765_cqq13_2.406_cqq11_-3.454_cqu1_-8.251_cqd1_3.987_ctq1_-2.608_ctu1_-5.906_ctd1_-13.122'> +1.0921629e+01 </wgt>
<wgt id='eftrwgt60_ctg_0.321_cqq83_5.49_cqq81_9.481_cqu8_6.2_cqd8_6.877_ctq8_-2.766_ctu8_2.591_ctd8_5.007_cqq13_4.948_cqq11_-5.846_cqu1_1.836_cqd1_2.37_ctq1_3.758_ctu1_-2.994_ctd1_-9.755'> +2.3690159e+01 </wgt>
<wgt id='eftrwgt61_ctg_0.309_cqq83_13.504_cqq81_0.142_cqu8_15.303_cqd8_-11.281_ctq8_-13.865_ctu8_10.736_ctd8_-18.349_cqq13_0.658_cqq11_-2.407_cqu1_-8.659_cqd1_5.691_ctq1_0.834_ctu1_-7.918_ctd1_8.27'> +4.3074234e+00 </wgt>
<wgt id='eftrwgt62_ctg_-0.755_cqq83_1.09_cqq81_-2.059_cqu8_14.895_cqd8_0.941_ctq8_-0.117_ctu8_-3.607_ctd8_-7.303_cqq13_2.029_cqq11_-6.951_cqu1_-7.372_cqd1_-8.246_ctq1_-0.626_ctu1_-0.403_ctd1_-6.554'> +1.6746977e+01 </wgt>
<wgt id='eftrwgt63_ctg_-1.189_cqq83_3.274_cqq81_5.97_cqu8_-8.688_cqd8_14.017_ctq8_2.273_ctu8_14.433_ctd8_-19.069_cqq13_-4.403_cqq11_3.367_cqu1_-4.681_cqd1_10.796_ctq1_-4.846_ctu1_1.054_ctd1_-13.006'> +3.2773452e+01 </wgt>
<wgt id='eftrwgt64_ctg_0.949_cqq83_12.237_cqq81_-2.266_cqu8_-10.878_cqd8_-7.642_ctq8_-6.632_ctu8_-5.91_ctd8_22.286_cqq13_-6.42_cqq11_-0.839_cqu1_-9.914_cqd1_11.165_ctq1_5.728_ctu1_-2.834_ctd1_-11.273'> +1.1309392e+01 </wgt>
<wgt id='eftrwgt65_ctg_-1.077_cqq83_6.554_cqq81_-5.771_cqu8_-11.958_cqd8_-5.175_ctq8_6.893_ctu8_-15.271_ctd8_-11.605_cqq13_-2.625_cqq11_5.619_cqu1_-3.062_cqd1_8.844_ctq1_8.759_ctu1_7.743_ctd1_-9.404'> +6.8902248e+01 </wgt>
<wgt id='eftrwgt66_ctg_0.739_cqq83_-0.73_cqq81_-3.942_cqu8_0.197_cqd8_-20.568_ctq8_-3.855_ctu8_3.62_ctd8_-1.663_cqq13_1.279_cqq11_-5.868_cqu1_-1.596_cqd1_4.61_ctq1_-0.985_ctu1_5.278_ctd1_1.935'> +1.5105196e+01 </wgt>
<wgt id='eftrwgt67_ctg_-1.144_cqq83_-9.411_cqq81_11.632_cqu8_13.794_cqd8_19.35_ctq8_-9.734_ctu8_17.462_ctd8_-9.013_cqq13_6.095_cqq11_1.653_cqu1_10.71_cqd1_-11.055_ctq1_7.571_ctu1_0.484_ctd1_-1.685'> +1.1255647e+02 </wgt>
<wgt id='eftrwgt68_ctg_0.408_cqq83_3.73_cqq81_-12.673_cqu8_-15.054_cqd8_23.598_ctq8_0.269_ctu8_8.53_ctd8_-19.396_cqq13_1.648_cqq11_6.789_cqu1_-10.541_cqd1_-5.767_ctq1_-2.558_ctu1_-8.764_ctd1_1.857'> +1.6378790e+01 </wgt>
<wgt id='eftrwgt69_ctg_0.663_cqq83_-13.808_cqq81_11.681_cqu8_8.175_cqd8_23.585_ctq8_-6.295_ctu8_5.707_ctd8_-2.004_cqq13_2.652_cqq11_0.351_cqu1_-4.864_cqd1_13.53_ctq1_-5.642_ctu1_0.492_ctd1_8.029'> +3.5043847e+00 </wgt>
<wgt id='eftrwgt70_ctg_-0.454_cqq83_-0.455_cqq81_-2.236_cqu8_8.99_cqd8_14.139_ctq8_-10.102_ctu8_-6.093_ctd8_-2.425_cqq13_3.095_cqq11_-0.462_cqu1_-1.855_cqd1_11.152_ctq1_2.965_ctu1_0.951_ctd1_-6.03'> +1.7567960e+01 </wgt>
<wgt id='eftrwgt71_ctg_-0.477_cqq83_-16.758_cqq81_13.224_cqu8_13.232_cqd8_-5.763_ctq8_9.379_ctu8_-10.048_ctd8_-23.022_cqq13_4.391_cqq11_-6.178_cqu1_-8.099_cqd1_-8.009_ctq1_-1.03_ctu1_-2.674_ctd1_-1.681'> +1.2806127e+01 </wgt>
<wgt id='eftrwgt72_ctg_0.622_cqq83_2.696_cqq81_-10.207_cqu8_5.957_cqd8_7.886_ctq8_4.197_ctu8_8.121_ctd8_-20.035_cqq13_2.851_cqq11_-6.744_cqu1_-10.799_cqd1_2.202_ctq1_-7.508_ctu1_-1.701_ctd1_8.892'> +6.5818245e+01 </wgt>
<wgt id='eftrwgt73_ctg_-0.493_cqq83_10.355_cqq81_1.302_cqu8_-9.783_cqd8_-15.531_ctq8_-10.402_ctu8_5.144_ctd8_6.559_cqq13_5.572_cqq11_-0.688_cqu1_-7.729_cqd1_4.564_ctq1_-4.037_ctu1_3.296_ctd1_-5.207'> +3.2295755e+00 </wgt>
<wgt id='eftrwgt74_ctg_-1.313_cqq83_-14.474_cqq81_-0.652_cqu8_2.59_cqd8_16.401_ctq8_2.461_ctu8_-12.258_ctd8_-5.822_cqq13_6.708_cqq11_-5.017_cqu1_7.523_cqd1_10.388_ctq1_-3.975_ctu1_-5.142_ctd1_-12.623'> +4.9644084e+00 </wgt>
<wgt id='eftrwgt75_ctg_-0.166_cqq83_14.655_cqq81_-13.165_cqu8_13.182_cqd8_17.65_ctq8_8.035_ctu8_-7.41_ctd8_5.594_cqq13_-1.583_cqq11_4.47_cqu1_6.793_cqd1_9.148_ctq1_6.872_ctu1_4.564_ctd1_-3.17'> +5.4298189e+01 </wgt>
<wgt id='eftrwgt76_ctg_0.607_cqq83_-7.784_cqq81_0.889_cqu8_-5.808_cqd8_-18.52_ctq8_-10.702_ctu8_6.093_ctd8_5.795_cqq13_-4.86_cqq11_6.059_cqu1_5.977_cqd1_-3.82_ctq1_-0.432_ctu1_0.091_ctd1_12.704'> +3.5499612e+00 </wgt>
<wgt id='eftrwgt77_ctg_-0.008_cqq83_-13.549_cqq81_-2.371_cqu8_-17.548_cqd8_17.783_ctq8_-12.818_ctu8_-10.851_ctd8_-11.002_cqq13_-7.936_cqq11_-0.409_cqu1_4.737_cqd1_0.464_ctq1_-0.138_ctu1_-4.15_ctd1_2.286'> +4.9259255e+01 </wgt>
<wgt id='eftrwgt78_ctg_0.693_cqq83_-17.302_cqq81_-6.475_cqu8_7.814_cqd8_3.71_ctq8_7.916_ctu8_-4.439_ctd8_21.712_cqq13_-1.558_cqq11_5.054_cqu1_2.274_cqd1_7.748_ctq1_-4.741_ctu1_4.163_ctd1_-9.021'> +2.2245624e+00 </wgt>
<wgt id='eftrwgt79_ctg_-1.245_cqq83_-11.588_cqq81_7.305_cqu8_-18.227_cqd8_-8.677_ctq8_11.343_ctu8_2.055_ctd8_-10.604_cqq13_4.361_cqq11_6.251_cqu1_4.537_cqd1_-0.734_ctq1_3.998_ctu1_-6.261_ctd1_-5.045'> +1.0273096e+02 </wgt>
<wgt id='eftrwgt80_ctg_-0.18_cqq83_-10.265_cqq81_2.0_cqu8_-7.281_cqd8_10.418_ctq8_-8.392_ctu8_-11.821_ctd8_14.446_cqq13_4.32_cqq11_-7.909_cqu1_-1.266_cqd1_-1.485_ctq1_7.422_ctu1_-9.567_ctd1_-7.015'> +1.1987772e+01 </wgt>
<wgt id='eftrwgt81_ctg_0.953_cqq83_-15.744_cqq81_-8.719_cqu8_4.233_cqd8_5.5_ctq8_9.427_ctu8_-3.148_ctd8_13.913_cqq13_7.844_cqq11_-2.685_cqu1_-10.526_cqd1_-11.474_ctq1_1.94_ctu1_-0.862_ctd1_-11.271'> +2.6009058e+01 </wgt>
<wgt id='eftrwgt82_ctg_0.709_cqq83_-3.094_cqq81_5.584_cqu8_5.962_cqd8_-12.068_ctq8_7.256_ctu8_-14.777_ctd8_-14.389_cqq13_-4.278_cqq11_8.12_cqu1_0.179_cqd1_-1.651_ctq1_-8.145_ctu1_2.242_ctd1_-10.245'> +3.0242612e+01 </wgt>
<wgt id='eftrwgt83_ctg_0.687_cqq83_-1.156_cqq81_3.18_cqu8_-3.335_cqd8_-0.404_ctq8_-5.778_ctu8_6.62_ctd8_-17.153_cqq13_-5.912_cqq11_5.654_cqu1_-1.269_cqd1_8.004_ctq1_-1.868_ctu1_0.845_ctd1_4.292'> +4.3770982e+00 </wgt>
<wgt id='eftrwgt84_ctg_-0.183_cqq83_-0.308_cqq81_0.037_cqu8_14.309_cqd8_-5.805_ctq8_9.893_ctu8_-5.881_ctd8_-1.437_cqq13_-2.017_cqq11_-6.656_cqu1_-1.67_cqd1_-5.98_ctq1_-8.794_ctu1_2.683_ctd1_9.412'> +1.6859261e+02 </wgt>
<wgt id='eftrwgt85_ctg_-0.942_cqq83_15.035_cqq81_13.373_cqu8_-5.07_cqd8_16.019_ctq8_-8.366_ctu8_14.649_ctd8_22.16_cqq13_-4.681_cqq11_6.562_cqu1_-1.143_cqd1_-10.901_ctq1_-6.626_ctu1_7.385_ctd1_-3.635'> +4.6530114e+01 </wgt>
<wgt id='eftrwgt86_ctg_-0.142_cqq83_-2.994_cqq81_12.042_cqu8_8.306_cqd8_-8.182_ctq8_-12.155_ctu8_-0.571_ctd8_11.633_cqq13_-5.051_cqq11_1.519_cqu1_-1.733_cqd1_9.994_ctq1_-6.524_ctu1_4.94_ctd1_2.118'> +5.0500534e+01 </wgt>
<wgt id='eftrwgt87_ctg_0.929_cqq83_16.258_cqq81_4.432_cqu8_11.37_cqd8_2.732_ctq8_-0.209_ctu8_11.238_ctd8_0.002_cqq13_-3.184_cqq11_5.425_cqu1_-3.268_cqd1_11.628_ctq1_2.342_ctu1_-8.392_ctd1_13.454'> +5.2086160e+01 </wgt>
<wgt id='eftrwgt88_ctg_0.663_cqq83_-0.312_cqq81_4.634_cqu8_13.091_cqd8_20.152_ctq8_-11.08_ctu8_10.132_ctd8_8.016_cqq13_2.666_cqq11_-0.154_cqu1_10.589_cqd1_-1.792_ctq1_-0.235_ctu1_-1.608_ctd1_11.236'> +2.6632762e+00 </wgt>
<wgt id='eftrwgt89_ctg_-0.7_cqq83_-8.489_cqq81_-4.248_cqu8_-16.694_cqd8_11.319_ctq8_10.136_ctu8_16.621_ctd8_-12.449_cqq13_5.869_cqq11_0.2_cqu1_7.255_cqd1_6.776_ctq1_-7.91_ctu1_7.893_ctd1_-13.519'> +2.4751784e+00 </wgt>
<wgt id='eftrwgt90_ctg_1.035_cqq83_-14.726_cqq81_-10.269_cqu8_8.762_cqd8_-16.804_ctq8_-12.281_ctu8_-9.071_ctd8_-18.776_cqq13_-0.931_cqq11_-5.226_cqu1_2.228_cqd1_0.749_ctq1_4.043_ctu1_-9.625_ctd1_12.055'> +3.4377999e+01 </wgt>
<wgt id='eftrwgt91_ctg_0.582_cqq83_7.693_cqq81_-11.295_cqu8_-2.266_cqd8_14.634_ctq8_4.883_ctu8_17.79_ctd8_11.844_cqq13_-6.479_cqq11_-4.102_cqu1_2.603_cqd1_-3.346_ctq1_-0.515_ctu1_-6.838_ctd1_-11.52'> +6.8064533e+01 </wgt>
<wgt id='eftrwgt92_ctg_-1.029_cqq83_4.889_cqq81_-11.405_cqu8_13.309_cqd8_-14.979_ctq8_-5.195_ctu8_6.668_ctd8_-24.798_cqq13_5.441_cqq11_-0.506_cqu1_-0.753_cqd1_-13.543_ctq1_-8.67_ctu1_-7.915_ctd1_-0.334'> +7.8185576e+00 </wgt>
<wgt id='eftrwgt93_ctg_1.323_cqq83_-4.365_cqq81_-4.298_cqu8_7.237_cqd8_-13.74_ctq8_-0.526_ctu8_-16.032_ctd8_-23.867_cqq13_-2.711_cqq11_8.204_cqu1_-9.783_cqd1_-13.301_ctq1_5.357_ctu1_-4.585_ctd1_3.272'> +5.5300800e+01 </wgt>
<wgt id='eftrwgt94_ctg_0.923_cqq83_-5.687_cqq81_-9.274_cqu8_-6.946_cqd8_-18.634_ctq8_-2.87_ctu8_-10.48_ctd8_20.825_cqq13_0.818_cqq11_7.594_cqu1_-2.651_cqd1_-8.209_ctq1_-4.375_ctu1_-0.453_ctd1_-11.307'> +1.1403718e+01 </wgt>
<wgt id='eftrwgt95_ctg_-0.353_cqq83_16.887_cqq81_4.599_cqu8_5.271_cqd8_15.7_ctq8_9.777_ctu8_16.081_ctd8_11.396_cqq13_-1.084_cqq11_-4.79_cqu1_-0.778_cqd1_12.085_ctq1_-5.567_ctu1_-7.961_ctd1_2.198'> +1.4810881e+02 </wgt>
<wgt id='eftrwgt96_ctg_0.041_cqq83_-5.923_cqq81_-2.955_cqu8_4.903_cqd8_20.523_ctq8_-10.841_ctu8_-16.659_ctd8_-20.437_cqq13_-0.715_cqq11_3.365_cqu1_7.617_cqd1_-8.653_ctq1_-1.465_ctu1_-1.263_ctd1_-7.434'> +7.6008209e+00 </wgt>
<wgt id='eftrwgt97_ctg_0.464_cqq83_6.456_cqq81_3.991_cqu8_-17.621_cqd8_21.05_ctq8_-3.045_ctu8_-1.74_ctd8_-0.321_cqq13_-0.503_cqq11_-7.685_cqu1_3.634_cqd1_-8.072_ctq1_-8.465_ctu1_4.741_ctd1_-8.716'> +1.5392086e+02 </wgt>
<wgt id='eftrwgt98_ctg_1.109_cqq83_-17.675_cqq81_-12.841_cqu8_-7.769_cqd8_-4.881_ctq8_8.767_ctu8_1.909_ctd8_-17.434_cqq13_5.514_cqq11_4.151_cqu1_-4.537_cqd1_10.377_ctq1_-0.495_ctu1_-9.214_ctd1_-2.18'> +4.8910823e+01 </wgt>
<wgt id='eftrwgt99_ctg_0.407_cqq83_-15.227_cqq81_3.076_cqu8_16.069_cqd8_-14.34_ctq8_-10.144_ctu8_-13.132_ctd8_6.768_cqq13_-2.495_cqq11_-6.097_cqu1_-9.127_cqd1_6.952_ctq1_6.568_ctu1_4.211_ctd1_13.935'> +9.4560516e+00 </wgt>
<wgt id='eftrwgt100_ctg_-0.701_cqq83_-0.048_cqq81_-13.163_cqu8_5.634_cqd8_10.956_ctq8_-0.744_ctu8_7.675_ctd8_11.807_cqq13_5.749_cqq11_-2.151_cqu1_8.431_cqd1_-6.532_ctq1_6.71_ctu1_1.894_ctd1_-1.052'> +5.5774178e+01 </wgt>
<wgt id='eftrwgt101_ctg_-0.35_cqq83_14.955_cqq81_13.247_cqu8_12.366_cqd8_-17.494_ctq8_13.947_ctu8_15.163_ctd8_24.316_cqq13_-3.799_cqq11_-3.202_cqu1_6.22_cqd1_12.06_ctq1_-5.011_ctu1_-3.243_ctd1_-4.236'> +2.0599492e+02 </wgt>
<wgt id='eftrwgt102_ctg_0.556_cqq83_-5.267_cqq81_-10.439_cqu8_2.364_cqd8_0.675_ctq8_-12.861_ctu8_-7.633_ctd8_-19.227_cqq13_7.964_cqq11_-4.314_cqu1_-5.928_cqd1_-4.03_ctq1_5.914_ctu1_5.907_ctd1_11.347'> +6.6774824e+01 </wgt>
<wgt id='eftrwgt103_ctg_0.125_cqq83_-12.646_cqq81_10.46_cqu8_18.952_cqd8_-13.688_ctq8_-9.243_ctu8_-14.143_ctd8_-9.888_cqq13_-8.119_cqq11_3.122_cqu1_8.657_cqd1_7.658_ctq1_-7.962_ctu1_3.664_ctd1_-2.552'> +7.8799265e+01 </wgt>
<wgt id='eftrwgt104_ctg_-0.763_cqq83_-3.804_cqq81_11.607_cqu8_-13.419_cqd8_14.176_ctq8_-9.066_ctu8_-15.02_ctd8_-4.358_cqq13_-1.193_cqq11_-6.481_cqu1_4.998_cqd1_-9.789_ctq1_1.777_ctu1_10.322_ctd1_2.64'> +1.8641289e+01 </wgt>
<wgt id='eftrwgt105_ctg_-1.088_cqq83_12.665_cqq81_-11.087_cqu8_18.548_cqd8_-4.797_ctq8_-2.92_ctu8_2.89_ctd8_13.714_cqq13_6.529_cqq11_2.903_cqu1_9.448_cqd1_-11.012_ctq1_-0.553_ctu1_-10.792_ctd1_7.312'> +3.7014390e+01 </wgt>
<wgt id='eftrwgt106_ctg_-0.66_cqq83_13.87_cqq81_-10.837_cqu8_-12.598_cqd8_7.858_ctq8_-12.118_ctu8_-7.151_ctd8_16.078_cqq13_4.226_cqq11_0.29_cqu1_-10.828_cqd1_12.788_ctq1_7.2_ctu1_2.803_ctd1_-12.185'> +6.6309976e+01 </wgt>
<wgt id='eftrwgt107_ctg_0.987_cqq83_4.124_cqq81_-7.722_cqu8_-17.904_cqd8_-9.465_ctq8_-8.335_ctu8_11.217_ctd8_22.691_cqq13_-5.276_cqq11_2.989_cqu1_7.593_cqd1_-5.045_ctq1_1.607_ctu1_3.552_ctd1_13.817'> +2.7715281e-01 </wgt>
<wgt id='eftrwgt108_ctg_-0.161_cqq83_-2.662_cqq81_-3.151_cqu8_9.405_cqd8_-12.787_ctq8_6.797_ctu8_12.29_ctd8_-20.381_cqq13_6.286_cqq11_-1.665_cqu1_-10.66_cqd1_13.551_ctq1_-0.592_ctu1_-10.77_ctd1_-11.103'> +1.0293907e+01 </wgt>
<wgt id='eftrwgt109_ctg_-0.866_cqq83_17.321_cqq81_-1.402_cqu8_15.303_cqd8_-9.712_ctq8_-2.135_ctu8_4.236_ctd8_-2.625_cqq13_6.154_cqq11_-5.703_cqu1_2.095_cqd1_6.678_ctq1_-8.391_ctu1_-3.925_ctd1_1.624'> +5.3520895e+01 </wgt>
<wgt id='eftrwgt110_ctg_0.155_cqq83_-16.958_cqq81_-11.926_cqu8_-4.429_cqd8_12.271_ctq8_12.349_ctu8_9.754_ctd8_-5.943_cqq13_1.387_cqq11_-2.925_cqu1_8.241_cqd1_-0.988_ctq1_8.274_ctu1_-10.609_ctd1_-7.304'> +2.6426283e+01 </wgt>
<wgt id='eftrwgt111_ctg_-1.065_cqq83_14.73_cqq81_-1.172_cqu8_-15.353_cqd8_0.237_ctq8_10.108_ctu8_4.492_ctd8_24.01_cqq13_-1.328_cqq11_0.667_cqu1_-2.509_cqd1_0.719_ctq1_0.384_ctu1_-8.496_ctd1_-3.168'> +4.1331129e+01 </wgt>
<wgt id='eftrwgt112_ctg_0.963_cqq83_-9.182_cqq81_0.049_cqu8_8.605_cqd8_-14.263_ctq8_8.142_ctu8_-8.43_ctd8_-11.958_cqq13_-2.649_cqq11_1.046_cqu1_6.616_cqd1_7.998_ctq1_1.189_ctu1_-6.255_ctd1_6.95'> +4.7679600e+00 </wgt>
<wgt id='eftrwgt113_ctg_1.026_cqq83_-11.499_cqq81_-5.535_cqu8_17.173_cqd8_3.883_ctq8_-9.651_ctu8_-11.427_ctd8_18.837_cqq13_6.015_cqq11_6.509_cqu1_10.344_cqd1_-2.658_ctq1_-2.985_ctu1_-3.104_ctd1_9.041'> +6.0579588e+01 </wgt>
<wgt id='eftrwgt114_ctg_1.167_cqq83_14.15_cqq81_-2.248_cqu8_-3.57_cqd8_15.163_ctq8_-12.657_ctu8_5.129_ctd8_6.614_cqq13_-6.863_cqq11_-3.391_cqu1_-0.777_cqd1_-2.994_ctq1_1.952_ctu1_-7.447_ctd1_11.847'> +4.0838729e+01 </wgt>
<wgt id='eftrwgt115_ctg_0.982_cqq83_-16.13_cqq81_-2.864_cqu8_-3.251_cqd8_13.648_ctq8_-3.377_ctu8_-15.255_ctd8_-20.505_cqq13_6.864_cqq11_6.065_cqu1_1.403_cqd1_13.412_ctq1_6.891_ctu1_-5.305_ctd1_6.959'> +2.0048566e+02 </wgt>
<wgt id='eftrwgt116_ctg_0.484_cqq83_-5.877_cqq81_-0.844_cqu8_-8.226_cqd8_-12.543_ctq8_-7.938_ctu8_-14.308_ctd8_-16.759_cqq13_3.295_cqq11_-4.935_cqu1_1.553_cqd1_-2.747_ctq1_1.896_ctu1_-2.598_ctd1_1.468'> +1.4433002e+00 </wgt>
<wgt id='eftrwgt117_ctg_-0.766_cqq83_13.005_cqq81_4.278_cqu8_-5.789_cqd8_-2.642_ctq8_1.928_ctu8_-17.627_ctd8_13.206_cqq13_-3.352_cqq11_-4.623_cqu1_1.281_cqd1_-0.353_ctq1_-7.888_ctu1_-2.739_ctd1_-3.691'> +1.6333798e+02 </wgt>
<wgt id='eftrwgt118_ctg_-0.026_cqq83_16.863_cqq81_-3.657_cqu8_-14.653_cqd8_19.452_ctq8_-11.093_ctu8_7.169_ctd8_12.713_cqq13_2.219_cqq11_6.829_cqu1_-1.47_cqd1_13.329_ctq1_-8.726_ctu1_4.506_ctd1_-6.731'> +4.8482492e+00 </wgt>
<wgt id='eftrwgt119_ctg_-0.927_cqq83_14.324_cqq81_12.494_cqu8_-15.766_cqd8_-22.63_ctq8_7.771_ctu8_17.012_ctd8_-4.27_cqq13_-4.263_cqq11_7.096_cqu1_5.583_cqd1_7.465_ctq1_3.841_ctu1_9.204_ctd1_12.312'> +9.1509507e+01 </wgt>
<wgt id='eftrwgt120_ctg_-1.301_cqq83_2.61_cqq81_-0.228_cqu8_-13.019_cqd8_-7.21_ctq8_-10.88_ctu8_-12.7_ctd8_-9.515_cqq13_3.421_cqq11_-0.285_cqu1_-1.252_cqd1_-3.317_ctq1_7.885_ctu1_3.534_ctd1_11.001'> +5.9486210e+01 </wgt>
<wgt id='eftrwgt121_ctg_0.544_cqq83_-11.95_cqq81_-0.044_cqu8_-3.43_cqd8_-3.87_ctq8_-7.539_ctu8_-14.796_ctd8_-19.179_cqq13_3.035_cqq11_-7.307_cqu1_1.661_cqd1_-9.45_ctq1_-2.9_ctu1_7.446_ctd1_-4.846'> +2.6953554e+01 </wgt>
<wgt id='eftrwgt122_ctg_0.077_cqq83_12.997_cqq81_8.942_cqu8_-12.333_cqd8_-21.55_ctq8_8.94_ctu8_12.874_ctd8_-23.03_cqq13_7.882_cqq11_-0.681_cqu1_1.4_cqd1_6.361_ctq1_-0.884_ctu1_-0.375_ctd1_1.214'> +8.5614542e+01 </wgt>
<wgt id='eftrwgt123_ctg_-1.357_cqq83_9.311_cqq81_-6.821_cqu8_-3.271_cqd8_-16.074_ctq8_9.326_ctu8_14.404_ctd8_-2.447_cqq13_3.173_cqq11_-3.404_cqu1_2.525_cqd1_5.494_ctq1_-7.91_ctu1_-0.974_ctd1_4.439'> +4.8667536e+01 </wgt>
<wgt id='eftrwgt124_ctg_-1.223_cqq83_-12.321_cqq81_-7.848_cqu8_-2.265_cqd8_-5.02_ctq8_-13.565_ctu8_-9.074_ctd8_2.046_cqq13_-4.347_cqq11_5.557_cqu1_1.21_cqd1_-2.046_ctq1_-6.903_ctu1_-4.355_ctd1_2.297'> +5.0651099e+01 </wgt>
<wgt id='eftrwgt125_ctg_0.961_cqq83_6.0_cqq81_5.561_cqu8_-3.626_cqd8_-19.356_ctq8_-2.864_ctu8_-0.243_ctd8_23.255_cqq13_-8.112_cqq11_-5.996_cqu1_9.108_cqd1_-10.685_ctq1_-6.426_ctu1_-1.269_ctd1_3.35'> +2.3079053e+02 </wgt>
<wgt id='eftrwgt126_ctg_0.285_cqq83_-16.325_cqq81_0.476_cqu8_-16.347_cqd8_22.521_ctq8_-0.468_ctu8_-2.288_ctd8_22.57_cqq13_-7.864_cqq11_-2.689_cqu1_6.85_cqd1_8.701_ctq1_6.612_ctu1_10.799_ctd1_5.338'> +9.1054840e+00 </wgt>
<wgt id='eftrwgt127_ctg_-1.378_cqq83_-17.314_cqq81_-12.704_cqu8_-6.427_cqd8_-12.718_ctq8_4.311_ctu8_-7.334_ctd8_-24.506_cqq13_-8.01_cqq11_5.874_cqu1_0.468_cqd1_8.191_ctq1_-0.277_ctu1_8.517_ctd1_-7.478'> +2.2811184e+01 </wgt>
<wgt id='eftrwgt128_ctg_1.18_cqq83_-1.471_cqq81_2.433_cqu8_10.198_cqd8_23.306_ctq8_-12.125_ctu8_16.403_ctd8_18.18_cqq13_7.781_cqq11_-2.869_cqu1_-7.593_cqd1_-6.942_ctq1_0.572_ctu1_3.932_ctd1_-1.468'> +1.4228331e+01 </wgt>
<wgt id='eftrwgt129_ctg_0.941_cqq83_-4.592_cqq81_6.49_cqu8_-5.317_cqd8_16.947_ctq8_12.635_ctu8_-5.132_ctd8_22.403_cqq13_2.333_cqq11_-2.444_cqu1_7.188_cqd1_-3.684_ctq1_-5.675_ctu1_-4.027_ctd1_-1.358'> +5.1085446e+01 </wgt>
<wgt id='eftrwgt130_ctg_-0.208_cqq83_-17.622_cqq81_-2.397_cqu8_15.786_cqd8_15.249_ctq8_-1.44_ctu8_10.097_ctd8_-10.056_cqq13_-3.196_cqq11_4.986_cqu1_-0.332_cqd1_-13.619_ctq1_2.563_ctu1_1.892_ctd1_2.648'> +2.0322377e+01 </wgt>
<wgt id='eftrwgt131_ctg_1.247_cqq83_-17.63_cqq81_-10.818_cqu8_5.208_cqd8_0.681_ctq8_12.537_ctu8_-14.866_ctd8_3.091_cqq13_2.337_cqq11_-5.924_cqu1_5.379_cqd1_5.986_ctq1_-5.666_ctu1_10.553_ctd1_1.395'> +4.0025278e+01 </wgt>
<wgt id='eftrwgt132_ctg_-0.801_cqq83_7.262_cqq81_9.212_cqu8_-8.732_cqd8_-8.091_ctq8_-1.906_ctu8_3.948_ctd8_13.123_cqq13_2.692_cqq11_8.195_cqu1_0.96_cqd1_-1.571_ctq1_5.243_ctu1_-1.861_ctd1_-9.371'> +1.3314564e+02 </wgt>
<wgt id='eftrwgt133_ctg_-1.257_cqq83_16.117_cqq81_-9.715_cqu8_-7.571_cqd8_1.07_ctq8_2.477_ctu8_-7.002_ctd8_13.477_cqq13_-0.711_cqq11_7.763_cqu1_-6.041_cqd1_-7.251_ctq1_-2.998_ctu1_-2.904_ctd1_-12.567'> +1.5140794e+01 </wgt>
<wgt id='eftrwgt134_ctg_1.354_cqq83_-7.657_cqq81_-1.021_cqu8_-16.291_cqd8_1.184_ctq8_-2.275_ctu8_16.917_ctd8_-5.942_cqq13_5.969_cqq11_3.289_cqu1_-10.263_cqd1_4.064_ctq1_8.35_ctu1_-0.11_ctd1_0.257'> +1.4663799e+02 </wgt>
<wgt id='eftrwgt135_ctg_-0.715_cqq83_-9.614_cqq81_-10.763_cqu8_9.461_cqd8_21.044_ctq8_0.83_ctu8_16.276_ctd8_17.397_cqq13_7.427_cqq11_-7.592_cqu1_5.575_cqd1_-12.777_ctq1_0.413_ctu1_-0.337_ctd1_5.614'> +8.7135757e+00 </wgt>
<wgt id='eftrwgt136_ctg_1.148_cqq83_9.105_cqq81_7.25_cqu8_15.489_cqd8_-14.113_ctq8_-1.534_ctu8_-4.722_ctd8_-14.085_cqq13_7.64_cqq11_5.644_cqu1_6.289_cqd1_-3.464_ctq1_-4.467_ctu1_10.661_ctd1_-10.103'> +6.1958874e+01 </wgt>
<wgt id='eftrwgt137_ctg_0.519_cqq83_-3.88_cqq81_5.428_cqu8_-11.688_cqd8_12.458_ctq8_5.584_ctu8_4.192_ctd8_-4.494_cqq13_0.22_cqq11_6.429_cqu1_0.379_cqd1_-2.464_ctq1_3.48_ctu1_8.707_ctd1_10.184'> +5.6705387e+01 </wgt>
<wgt id='eftrwgt138_ctg_0.044_cqq83_15.014_cqq81_-2.24_cqu8_-0.07_cqd8_15.723_ctq8_4.233_ctu8_15.378_ctd8_22.326_cqq13_5.742_cqq11_-7.973_cqu1_5.127_cqd1_8.3_ctq1_-2.237_ctu1_-6.818_ctd1_9.184'> +4.4045815e+01 </wgt>
<wgt id='eftrwgt139_ctg_0.536_cqq83_3.108_cqq81_-2.815_cqu8_17.298_cqd8_-20.517_ctq8_-0.558_ctu8_5.522_ctd8_9.105_cqq13_7.706_cqq11_-1.121_cqu1_6.904_cqd1_-8.677_ctq1_0.168_ctu1_4.991_ctd1_3.884'> +2.3768607e+01 </wgt>
<wgt id='eftrwgt140_ctg_-1.222_cqq83_14.489_cqq81_7.936_cqu8_-5.001_cqd8_-7.099_ctq8_0.704_ctu8_-16.077_ctd8_15.282_cqq13_3.777_cqq11_4.884_cqu1_-3.897_cqd1_-3.233_ctq1_-0.56_ctu1_1.21_ctd1_-11.922'> +6.1959309e+01 </wgt>
<wgt id='eftrwgt141_ctg_-0.595_cqq83_-16.264_cqq81_7.534_cqu8_-4.512_cqd8_17.409_ctq8_3.217_ctu8_-8.193_ctd8_8.464_cqq13_-7.686_cqq11_-1.06_cqu1_4.135_cqd1_9.485_ctq1_-2.481_ctu1_4.42_ctd1_3.636'> +6.0119339e+01 </wgt>
<wgt id='eftrwgt142_ctg_1.208_cqq83_4.059_cqq81_6.781_cqu8_-5.717_cqd8_-21.408_ctq8_0.083_ctu8_14.943_ctd8_11.388_cqq13_0.694_cqq11_-5.103_cqu1_-7.402_cqd1_13.43_ctq1_3.406_ctu1_2.945_ctd1_5.188'> +2.5186257e+01 </wgt>
<wgt id='eftrwgt143_ctg_0.787_cqq83_2.859_cqq81_-12.404_cqu8_17.905_cqd8_18.147_ctq8_5.594_ctu8_13.171_ctd8_-8.3_cqq13_-1.709_cqq11_3.715_cqu1_-2.267_cqd1_0.319_ctq1_-2.513_ctu1_-6.093_ctd1_0.66'> +2.1009044e+00 </wgt>
<wgt id='eftrwgt144_ctg_0.369_cqq83_12.119_cqq81_10.451_cqu8_-4.308_cqd8_10.751_ctq8_2.903_ctu8_-16.453_ctd8_12.168_cqq13_-7.8_cqq11_-4.495_cqu1_-7.968_cqd1_-11.778_ctq1_-0.673_ctu1_9.838_ctd1_7.574'> +1.5239029e+02 </wgt>
<wgt id='eftrwgt145_ctg_-0.314_cqq83_-7.538_cqq81_9.523_cqu8_-0.965_cqd8_7.921_ctq8_-3.669_ctu8_-17.137_ctd8_13.302_cqq13_-0.272_cqq11_-1.659_cqu1_-4.888_cqd1_2.565_ctq1_-4.075_ctu1_7.665_ctd1_4.628'> +1.9686474e+01 </wgt>
<wgt id='eftrwgt146_ctg_-0.028_cqq83_17.018_cqq81_4.288_cqu8_2.423_cqd8_9.91_ctq8_-1.803_ctu8_-7.374_ctd8_-22.743_cqq13_1.412_cqq11_1.518_cqu1_-5.031_cqd1_4.621_ctq1_-2.805_ctu1_-7.971_ctd1_2.504'> +3.6648258e+01 </wgt>
<wgt id='eftrwgt147_ctg_0.512_cqq83_9.531_cqq81_-2.016_cqu8_15.155_cqd8_-1.954_ctq8_-13.237_ctu8_1.868_ctd8_5.908_cqq13_-7.773_cqq11_7.257_cqu1_4.489_cqd1_2.963_ctq1_-3.777_ctu1_5.458_ctd1_-6.432'> +9.9241727e+00 </wgt>
<wgt id='eftrwgt148_ctg_-0.482_cqq83_17.097_cqq81_10.457_cqu8_-6.705_cqd8_-13.185_ctq8_-4.371_ctu8_14.509_ctd8_-13.32_cqq13_1.822_cqq11_0.354_cqu1_7.002_cqd1_10.541_ctq1_5.822_ctu1_5.744_ctd1_-13.15'> +6.6380107e+01 </wgt>
<wgt id='eftrwgt149_ctg_-0.905_cqq83_0.86_cqq81_-13.515_cqu8_11.771_cqd8_-1.866_ctq8_13.439_ctu8_0.144_ctd8_13.675_cqq13_-5.569_cqq11_-7.731_cqu1_1.84_cqd1_3.468_ctq1_-5.507_ctu1_1.982_ctd1_-13.061'> +1.7346883e+02 </wgt>
<wgt id='eftrwgt150_ctg_0.0_cqq83_-11.426_cqq81_-6.524_cqu8_-16.088_cqd8_-21.27_ctq8_10.524_ctu8_14.233_ctd8_17.255_cqq13_4.89_cqq11_-4.416_cqu1_4.918_cqd1_-11.767_ctq1_1.268_ctu1_3.231_ctd1_-6.475'> +1.4752212e+00 </wgt>
<wgt id='eftrwgt151_ctg_-0.918_cqq83_-17.499_cqq81_-6.826_cqu8_10.016_cqd8_16.971_ctq8_1.599_ctu8_16.783_ctd8_5.312_cqq13_-2.351_cqq11_-1.209_cqu1_0.269_cqd1_-8.867_ctq1_-7.829_ctu1_-1.326_ctd1_-0.175'> +6.9162986e+01 </wgt>
<wgt id='eftrwgt152_ctg_-0.246_cqq83_8.939_cqq81_-6.847_cqu8_-18.344_cqd8_21.999_ctq8_6.606_ctu8_9.509_ctd8_17.198_cqq13_-1.071_cqq11_7.466_cqu1_-6.387_cqd1_-1.912_ctq1_8.495_ctu1_-3.261_ctd1_8.87'> +1.1020186e+02 </wgt>
<wgt id='eftrwgt153_ctg_0.903_cqq83_-16.714_cqq81_4.491_cqu8_13.339_cqd8_3.836_ctq8_10.658_ctu8_1.169_ctd8_-12.868_cqq13_-4.118_cqq11_5.124_cqu1_5.936_cqd1_-5.521_ctq1_-6.529_ctu1_-3.471_ctd1_-8.961'> +1.9795301e+01 </wgt>
<wgt id='eftrwgt154_ctg_-0.773_cqq83_-11.295_cqq81_11.399_cqu8_12.409_cqd8_-7.958_ctq8_-6.63_ctu8_17.921_ctd8_-4.387_cqq13_-1.075_cqq11_-3.648_cqu1_0.733_cqd1_9.925_ctq1_-5.979_ctu1_6.286_ctd1_-8.945'> +5.4151169e+01 </wgt>
<wgt id='eftrwgt155_ctg_-1.155_cqq83_10.436_cqq81_11.789_cqu8_11.375_cqd8_0.293_ctq8_-12.103_ctu8_-1.324_ctd8_-13.307_cqq13_0.647_cqq11_-1.508_cqu1_4.529_cqd1_-4.847_ctq1_-1.864_ctu1_7.458_ctd1_-2.56'> +1.6085102e+01 </wgt>
<wgt id='eftrwgt156_ctg_1.116_cqq83_-1.502_cqq81_7.154_cqu8_-6.575_cqd8_-19.147_ctq8_-2.196_ctu8_15.471_ctd8_-13.501_cqq13_6.413_cqq11_3.8_cqu1_-1.927_cqd1_3.978_ctq1_3.939_ctu1_-0.696_ctd1_7.298'> +9.8489032e+01 </wgt>
<wgt id='eftrwgt157_ctg_-0.739_cqq83_2.709_cqq81_13.851_cqu8_9.744_cqd8_-15.601_ctq8_-3.406_ctu8_0.534_ctd8_13.826_cqq13_-5.94_cqq11_0.154_cqu1_4.119_cqd1_-0.999_ctq1_7.262_ctu1_1.145_ctd1_4.349'> +1.8427196e+01 </wgt>
<wgt id='eftrwgt158_ctg_-0.16_cqq83_8.752_cqq81_-10.353_cqu8_13.772_cqd8_-19.74_ctq8_1.97_ctu8_-17.022_ctd8_-15.946_cqq13_4.368_cqq11_-3.748_cqu1_-3.331_cqd1_1.681_ctq1_0.02_ctu1_3.467_ctd1_11.988'> +3.2028325e+00 </wgt>
<wgt id='eftrwgt159_ctg_-0.773_cqq83_-5.383_cqq81_11.182_cqu8_14.253_cqd8_22.486_ctq8_4.123_ctu8_16.717_ctd8_16.197_cqq13_7.633_cqq11_3.65_cqu1_3.518_cqd1_4.557_ctq1_0.213_ctu1_-8.115_ctd1_5.813'> +6.9248516e+01 </wgt>
<wgt id='eftrwgt160_ctg_-0.954_cqq83_13.029_cqq81_10.509_cqu8_2.914_cqd8_-7.008_ctq8_3.519_ctu8_-4.882_ctd8_-8.587_cqq13_-4.654_cqq11_6.741_cqu1_-8.034_cqd1_8.536_ctq1_7.776_ctu1_8.243_ctd1_-6.062'> +8.7784813e+01 </wgt>
<wgt id='eftrwgt161_ctg_0.783_cqq83_-0.823_cqq81_-10.667_cqu8_6.458_cqd8_-6.599_ctq8_5.205_ctu8_-17.575_ctd8_-8.783_cqq13_-6.096_cqq11_-7.308_cqu1_-4.219_cqd1_4.937_ctq1_-6.352_ctu1_4.953_ctd1_3.017'> +1.8799280e+02 </wgt>
<wgt id='eftrwgt162_ctg_-0.671_cqq83_16.815_cqq81_-12.317_cqu8_1.448_cqd8_10.899_ctq8_4.606_ctu8_-11.122_ctd8_-10.201_cqq13_4.82_cqq11_3.575_cqu1_-8.572_cqd1_11.857_ctq1_5.276_ctu1_-9.587_ctd1_8.531'> +9.3501728e+01 </wgt>
<wgt id='eftrwgt163_ctg_1.242_cqq83_16.122_cqq81_-8.636_cqu8_-5.852_cqd8_7.335_ctq8_-5.7_ctu8_-13.545_ctd8_24.321_cqq13_5.114_cqq11_-6.63_cqu1_-4.255_cqd1_8.437_ctq1_-6.875_ctu1_9.128_ctd1_2.843'> +4.5197086e+01 </wgt>
<wgt id='eftrwgt164_ctg_1.092_cqq83_-5.055_cqq81_-8.599_cqu8_4.203_cqd8_-7.68_ctq8_-11.588_ctu8_0.276_ctd8_17.336_cqq13_-7.727_cqq11_-5.834_cqu1_-7.894_cqd1_-13.963_ctq1_8.207_ctu1_2.956_ctd1_-11.592'> +2.1084063e+01 </wgt>
<wgt id='eftrwgt165_ctg_0.595_cqq83_4.636_cqq81_-0.11_cqu8_-0.581_cqd8_-20.832_ctq8_-0.558_ctu8_4.659_ctd8_14.601_cqq13_-7.948_cqq11_3.039_cqu1_4.976_cqd1_-0.906_ctq1_-5.244_ctu1_-2.665_ctd1_-11.849'> +6.2278745e+01 </wgt>
<wgt id='eftrwgt166_ctg_1.216_cqq83_5.127_cqq81_1.484_cqu8_12.31_cqd8_15.332_ctq8_-1.18_ctu8_2.062_ctd8_7.64_cqq13_-3.138_cqq11_3.748_cqu1_-2.564_cqd1_-4.289_ctq1_4.03_ctu1_7.302_ctd1_-7.704'> +2.1292981e+01 </wgt>
<wgt id='eftrwgt167_ctg_1.033_cqq83_5.72_cqq81_-1.985_cqu8_-0.401_cqd8_0.76_ctq8_-4.788_ctu8_5.904_ctd8_-7.804_cqq13_5.806_cqq11_-6.292_cqu1_-1.952_cqd1_-8.265_ctq1_2.846_ctu1_-6.057_ctd1_7.749'> +6.5102607e+00 </wgt>
<wgt id='eftrwgt168_ctg_-0.37_cqq83_17.55_cqq81_9.651_cqu8_-15.831_cqd8_-2.866_ctq8_-6.609_ctu8_-14.397_ctd8_5.753_cqq13_5.663_cqq11_-8.112_cqu1_-9.915_cqd1_6.099_ctq1_-0.019_ctu1_-1.021_ctd1_-5.252'> +4.2470735e+01 </wgt>
<wgt id='eftrwgt169_ctg_-1.172_cqq83_17.994_cqq81_-4.282_cqu8_-10.241_cqd8_-2.149_ctq8_-9.811_ctu8_-0.052_ctd8_20.563_cqq13_0.796_cqq11_-3.46_cqu1_8.811_cqd1_-11.665_ctq1_2.613_ctu1_-2.034_ctd1_-11.62'> +3.9269039e+00 </wgt>
<wgt id='eftrwgt170_ctg_-1.173_cqq83_-5.111_cqq81_9.87_cqu8_12.84_cqd8_15.747_ctq8_6.145_ctu8_16.166_ctd8_21.901_cqq13_1.621_cqq11_-4.815_cqu1_-6.967_cqd1_-9.672_ctq1_8.708_ctu1_-3.905_ctd1_5.596'> +2.4146892e+01 </wgt>
<wgt id='eftrwgt171_ctg_-0.487_cqq83_-3.728_cqq81_-2.089_cqu8_-8.617_cqd8_-3.165_ctq8_5.221_ctu8_-6.935_ctd8_-10.922_cqq13_2.93_cqq11_-3.943_cqu1_0.026_cqd1_10.454_ctq1_1.412_ctu1_-4.837_ctd1_4.419'> +1.9299687e+00 </wgt>
<wgt id='eftrwgt172_ctg_0.395_cqq83_8.99_cqq81_-3.002_cqu8_-13.401_cqd8_-8.393_ctq8_6.268_ctu8_10.287_ctd8_3.578_cqq13_-0.326_cqq11_0.491_cqu1_-1.452_cqd1_0.292_ctq1_2.055_ctu1_8.333_ctd1_-11.0'> +2.3147297e+01 </wgt>
<wgt id='eftrwgt173_ctg_-0.268_cqq83_-9.609_cqq81_-10.088_cqu8_-10.258_cqd8_2.411_ctq8_-9.923_ctu8_-12.813_ctd8_-11.549_cqq13_-0.115_cqq11_0.881_cqu1_3.83_cqd1_-7.017_ctq1_-5.831_ctu1_5.916_ctd1_9.799'> +3.2639004e+01 </wgt>
<wgt id='eftrwgt174_ctg_0.0_cqq83_14.255_cqq81_-3.162_cqu8_7.632_cqd8_8.455_ctq8_-10.706_ctu8_12.248_ctd8_-7.818_cqq13_-7.674_cqq11_3.169_cqu1_-10.606_cqd1_10.997_ctq1_7.461_ctu1_-1.024_ctd1_-12.78'> +6.8490304e+00 </wgt>
<wgt id='eftrwgt175_ctg_0.97_cqq83_0.362_cqq81_12.475_cqu8_-6.155_cqd8_12.941_ctq8_-11.631_ctu8_12.793_ctd8_5.998_cqq13_5.415_cqq11_3.61_cqu1_3.086_cqd1_11.222_ctq1_-7.83_ctu1_7.604_ctd1_-6.316'> +6.8966595e+00 </wgt>
<wgt id='eftrwgt176_ctg_-0.671_cqq83_9.217_cqq81_12.675_cqu8_-5.504_cqd8_11.909_ctq8_-13.928_ctu8_3.526_ctd8_12.153_cqq13_6.419_cqq11_-4.462_cqu1_-8.472_cqd1_-6.853_ctq1_-5.497_ctu1_9.273_ctd1_7.938'> +1.7456147e+01 </wgt>
<wgt id='eftrwgt177_ctg_-0.305_cqq83_7.149_cqq81_-4.524_cqu8_-16.678_cqd8_-16.144_ctq8_5.076_ctu8_-17.746_ctd8_16.893_cqq13_4.267_cqq11_2.618_cqu1_4.353_cqd1_8.975_ctq1_4.66_ctu1_3.456_ctd1_-10.007'> +6.8657976e+01 </wgt>
<wgt id='eftrwgt178_ctg_-0.022_cqq83_13.793_cqq81_-0.578_cqu8_13.877_cqd8_-10.596_ctq8_10.476_ctu8_5.651_ctd8_8.781_cqq13_7.781_cqq11_-0.157_cqu1_-3.425_cqd1_10.096_ctq1_-6.687_ctu1_-1.677_ctd1_2.543'> +4.8360156e+01 </wgt>
<wgt id='eftrwgt179_ctg_0.497_cqq83_-6.916_cqq81_13.035_cqu8_-5.975_cqd8_12.419_ctq8_5.679_ctu8_-2.58_ctd8_-17.339_cqq13_-3.741_cqq11_-1.097_cqu1_-5.551_cqd1_-0.983_ctq1_-5.692_ctu1_4.263_ctd1_4.456'> +8.1514649e+01 </wgt>
<wgt id='sm_point'> +3.2021998e+00 </wgt>
<wgt id='1001'> +1.1579678e+02 </wgt>
<wgt id='1002'> +9.8045302e+01 </wgt>
<wgt id='1003'> +9.8045302e+01 </wgt>
<wgt id='1004'> +1.1704465e+02 </wgt>
<wgt id='1005'> +9.5841134e+01 </wgt>
<wgt id='1006'> +9.7596195e+01 </wgt>
<wgt id='1007'> +8.3732319e+01 </wgt>
<wgt id='1008'> +8.3732319e+01 </wgt>
<wgt id='1009'> +9.8559770e+01 </wgt>
<wgt id='1010'> +8.1989338e+01 </wgt>
<wgt id='1011'> +1.3971177e+02 </wgt>
<wgt id='1012'> +1.1643369e+02 </wgt>
<wgt id='1013'> +1.1643369e+02 </wgt>
<wgt id='1014'> +1.4137127e+02 </wgt>
<wgt id='1015'> +1.1358749e+02 </wgt>
<wgt id='1016'> +1.1516763e+02 </wgt>
<wgt id='1017'> +9.7225318e+01 </wgt>
<wgt id='1018'> +9.7225318e+01 </wgt>
<wgt id='1019'> +1.1643369e+02 </wgt>
<wgt id='1020'> +9.5005580e+01 </wgt>
<wgt id='1021'> +9.7065933e+01 </wgt>
<wgt id='1022'> +8.3032039e+01 </wgt>
<wgt id='1023'> +8.3032039e+01 </wgt>
<wgt id='1024'> +9.8045302e+01 </wgt>
<wgt id='1025'> +8.1274546e+01 </wgt>
<wgt id='1026'> +1.3895268e+02 </wgt>
<wgt id='1027'> +1.1545992e+02 </wgt>
<wgt id='1028'> +1.1545992e+02 </wgt>
<wgt id='1029'> +1.4063333e+02 </wgt>
<wgt id='1030'> +1.1259722e+02 </wgt>
<wgt id='1031'> +1.1592042e+02 </wgt>
<wgt id='1032'> +9.8559770e+01 </wgt>
<wgt id='1033'> +9.8559770e+01 </wgt>
<wgt id='1034'> +1.1713390e+02 </wgt>
<wgt id='1035'> +9.6390255e+01 </wgt>
<wgt id='1036'> +9.7700404e+01 </wgt>
<wgt id='1037'> +8.4171683e+01 </wgt>
<wgt id='1038'> +8.4171683e+01 </wgt>
<wgt id='1039'> +9.8634926e+01 </wgt>
<wgt id='1040'> +8.2459095e+01 </wgt>
<wgt id='1041'> +1.3986095e+02 </wgt>
<wgt id='1042'> +1.1704465e+02 </wgt>
<wgt id='1043'> +1.1704465e+02 </wgt>
<wgt id='1044'> +1.4147907e+02 </wgt>
<wgt id='1045'> +1.1423829e+02 </wgt>
<wgt id='1046'> +1.3787035e+02 </wgt>
<wgt id='1047'> +9.9940838e+01 </wgt>
<wgt id='1048'> +1.1579678e+02 </wgt>
<wgt id='1049'> +1.1572781e+02 </wgt>
<wgt id='1050'> +1.1563098e+02 </wgt>
<wgt id='1051'> +1.1554169e+02 </wgt>
<wgt id='1052'> +1.1571684e+02 </wgt>
<wgt id='1053'> +1.1595414e+02 </wgt>
<wgt id='1054'> +1.1532639e+02 </wgt>
<wgt id='1055'> +1.1582291e+02 </wgt>
<wgt id='1056'> +1.1530970e+02 </wgt>
<wgt id='1057'> +1.1651274e+02 </wgt>
<wgt id='1058'> +1.1521321e+02 </wgt>
<wgt id='1059'> +1.1581151e+02 </wgt>
<wgt id='1060'> +1.1554247e+02 </wgt>
<wgt id='1061'> +1.1586097e+02 </wgt>
<wgt id='1062'> +1.1610509e+02 </wgt>
<wgt id='1063'> +1.1661491e+02 </wgt>
<wgt id='1064'> +1.1565232e+02 </wgt>
<wgt id='1065'> +1.1559532e+02 </wgt>
<wgt id='1066'> +1.1515764e+02 </wgt>
<wgt id='1067'> +1.1587187e+02 </wgt>
<wgt id='1068'> +1.1536163e+02 </wgt>
<wgt id='1069'> +1.1527137e+02 </wgt>
<wgt id='1070'> +1.1652701e+02 </wgt>
<wgt id='1071'> +1.1532944e+02 </wgt>
<wgt id='1072'> +1.1526187e+02 </wgt>
<wgt id='1073'> +1.1551659e+02 </wgt>
<wgt id='1074'> +1.1568538e+02 </wgt>
<wgt id='1075'> +1.1586373e+02 </wgt>
<wgt id='1076'> +1.1626862e+02 </wgt>
<wgt id='1077'> +1.1650533e+02 </wgt>
<wgt id='1078'> +1.1599599e+02 </wgt>
<wgt id='1079'> +1.1716455e+02 </wgt>
<wgt id='1080'> +1.1557630e+02 </wgt>
<wgt id='1081'> +1.1596007e+02 </wgt>
<wgt id='1082'> +1.1622504e+02 </wgt>
<wgt id='1083'> +1.1562871e+02 </wgt>
<wgt id='1084'> +1.1519187e+02 </wgt>
<wgt id='1085'> +1.1661198e+02 </wgt>
<wgt id='1086'> +1.1582185e+02 </wgt>
<wgt id='1087'> +1.1574579e+02 </wgt>
<wgt id='1088'> +1.1628812e+02 </wgt>
<wgt id='1089'> +1.1617065e+02 </wgt>
<wgt id='1090'> +1.1581246e+02 </wgt>
<wgt id='1091'> +1.1603582e+02 </wgt>
<wgt id='1092'> +1.1572769e+02 </wgt>
<wgt id='1093'> +1.1572777e+02 </wgt>
<wgt id='1094'> +1.1548382e+02 </wgt>
<wgt id='1095'> +1.1566892e+02 </wgt>
<wgt id='1096'> +1.1559186e+02 </wgt>
<wgt id='1097'> +1.1563090e+02 </wgt>
<wgt id='1098'> +1.1573910e+02 </wgt>
<wgt id='1099'> +1.1566484e+02 </wgt>
<wgt id='1100'> +1.1603365e+02 </wgt>
<wgt id='1101'> +1.1564697e+02 </wgt>
<wgt id='1102'> +1.1587890e+02 </wgt>
<wgt id='1103'> +1.1589292e+02 </wgt>
<wgt id='1104'> +1.1618637e+02 </wgt>
<wgt id='1105'> +1.1607531e+02 </wgt>
<wgt id='1106'> +1.1570685e+02 </wgt>
<wgt id='1107'> +1.1608383e+02 </wgt>
<wgt id='1108'> +1.1581647e+02 </wgt>
<wgt id='1109'> +1.1578577e+02 </wgt>
<wgt id='1110'> +1.1571193e+02 </wgt>
<wgt id='1111'> +1.1591903e+02 </wgt>
<wgt id='1112'> +1.1592198e+02 </wgt>
<wgt id='1113'> +1.1580592e+02 </wgt>
<wgt id='1114'> +1.1578988e+02 </wgt>
<wgt id='1115'> +1.1590031e+02 </wgt>
<wgt id='1116'> +1.1562684e+02 </wgt>
<wgt id='1117'> +1.1581815e+02 </wgt>
<wgt id='1118'> +1.1563811e+02 </wgt>
<wgt id='1119'> +1.1578834e+02 </wgt>
<wgt id='1120'> +1.1582178e+02 </wgt>
<wgt id='1121'> +1.1598953e+02 </wgt>
<wgt id='1122'> +1.1581978e+02 </wgt>
<wgt id='1123'> +1.1585573e+02 </wgt>
<wgt id='1124'> +1.1577707e+02 </wgt>
<wgt id='1125'> +1.1575741e+02 </wgt>
<wgt id='1126'> +1.1582076e+02 </wgt>
<wgt id='1127'> +1.1574706e+02 </wgt>
<wgt id='1128'> +1.1583464e+02 </wgt>
<wgt id='1129'> +1.1576790e+02 </wgt>
<wgt id='1130'> +1.1578986e+02 </wgt>
<wgt id='1131'> +1.1586266e+02 </wgt>
<wgt id='1132'> +1.1585755e+02 </wgt>
<wgt id='1133'> +1.1581032e+02 </wgt>
<wgt id='1134'> +1.1563424e+02 </wgt>
<wgt id='1135'> +1.1584156e+02 </wgt>
<wgt id='1136'> +1.1566239e+02 </wgt>
<wgt id='1137'> +1.1587716e+02 </wgt>
<wgt id='1138'> +1.1584631e+02 </wgt>
<wgt id='1139'> +1.1580815e+02 </wgt>
<wgt id='1140'> +1.1588498e+02 </wgt>
<wgt id='1141'> +1.1579005e+02 </wgt>
<wgt id='1142'> +1.1580131e+02 </wgt>
<wgt id='1143'> +1.1582580e+02 </wgt>
<wgt id='1144'> +1.1582200e+02 </wgt>
<wgt id='1145'> +1.1584472e+02 </wgt>
<wgt id='1146'> +1.1580864e+02 </wgt>
<wgt id='1147'> +1.1583330e+02 </wgt>
<wgt id='1148'> +1.1579678e+02 </wgt>
<wgt id='1149'> +1.0954026e+02 </wgt>
<wgt id='1150'> +1.2243886e+02 </wgt>
<wgt id='1151'> +1.1579678e+02 </wgt>
<wgt id='1152'> +1.2535443e+02 </wgt>
<wgt id='1153'> +1.1832314e+02 </wgt>
<wgt id='1154'> +1.1522846e+02 </wgt>
<wgt id='1155'> +1.1441219e+02 </wgt>
<wgt id='1156'> +1.1194590e+02 </wgt>
<wgt id='1157'> +1.2017700e+02 </wgt>
<wgt id='1158'> +1.1844356e+02 </wgt>
<wgt id='1159'> +1.1405127e+02 </wgt>
<wgt id='1160'> +1.1247575e+02 </wgt>
<wgt id='1161'> +1.0708388e+02 </wgt>
<wgt id='1162'> +1.1548312e+02 </wgt>
<wgt id='1163'> +1.1273925e+02 </wgt>
<wgt id='1164'> +1.1348774e+02 </wgt>
<wgt id='1165'> +1.1891917e+02 </wgt>
<wgt id='1166'> +1.1728179e+02 </wgt>
<wgt id='1167'> +1.1525116e+02 </wgt>
<wgt id='1168'> +1.1571610e+02 </wgt>
<wgt id='1169'> +1.1340837e+02 </wgt>
<wgt id='1170'> +1.1753361e+02 </wgt>
<wgt id='1171'> +1.1005275e+02 </wgt>
<wgt id='1172'> +1.1719055e+02 </wgt>
<wgt id='1173'> +1.1983888e+02 </wgt>
<wgt id='1174'> +1.1849757e+02 </wgt>
<wgt id='1175'> +1.1141235e+02 </wgt>
<wgt id='1176'> +1.1715874e+02 </wgt>
<wgt id='1177'> +1.2214249e+02 </wgt>
<wgt id='1178'> +1.1324563e+02 </wgt>
<wgt id='1179'> +1.1635848e+02 </wgt>
<wgt id='1180'> +1.1537189e+02 </wgt>
<wgt id='1181'> +1.1691558e+02 </wgt>
<wgt id='1182'> +1.1964875e+02 </wgt>
<wgt id='1183'> +1.1516417e+02 </wgt>
<wgt id='1184'> +1.1999117e+02 </wgt>
<wgt id='1185'> +1.1006308e+02 </wgt>
<wgt id='1186'> +1.1537757e+02 </wgt>
<wgt id='1187'> +1.1900259e+02 </wgt>
<wgt id='1188'> +1.1525394e+02 </wgt>
<wgt id='1189'> +1.1458316e+02 </wgt>
<wgt id='1190'> +1.1604256e+02 </wgt>
<wgt id='1191'> +1.1971022e+02 </wgt>
<wgt id='1192'> +1.1732602e+02 </wgt>
<wgt id='1193'> +1.1710680e+02 </wgt>
<wgt id='1194'> +1.1541116e+02 </wgt>
<wgt id='1195'> +1.1790116e+02 </wgt>
<wgt id='1196'> +1.1968522e+02 </wgt>
<wgt id='1197'> +1.1801892e+02 </wgt>
<wgt id='1198'> +1.1736959e+02 </wgt>
<wgt id='1199'> +1.1528627e+02 </wgt>
<wgt id='1200'> +1.1820369e+02 </wgt>
<wgt id='1201'> +1.1156918e+02 </wgt>
<wgt id='1202'> +1.1434100e+02 </wgt>
<wgt id='1203'> +1.1587495e+02 </wgt>
<wgt id='1204'> +1.1588337e+02 </wgt>
<wgt id='1205'> +1.1788492e+02 </wgt>
<wgt id='1206'> +1.1996939e+02 </wgt>
<wgt id='1207'> +1.1458343e+02 </wgt>
<wgt id='1208'> +1.1710797e+02 </wgt>
<wgt id='1209'> +1.1730321e+02 </wgt>
<wgt id='1210'> +1.1792193e+02 </wgt>
<wgt id='1211'> +1.2017834e+02 </wgt>
<wgt id='1212'> +1.1547769e+02 </wgt>
<wgt id='1213'> +1.1395638e+02 </wgt>
<wgt id='1214'> +1.1404862e+02 </wgt>
<wgt id='1215'> +1.1412534e+02 </wgt>
<wgt id='1216'> +1.1863054e+02 </wgt>
<wgt id='1217'> +1.2142735e+02 </wgt>
<wgt id='1218'> +1.1743974e+02 </wgt>
<wgt id='1219'> +1.1733065e+02 </wgt>
<wgt id='1220'> +1.1763692e+02 </wgt>
<wgt id='1221'> +1.1352359e+02 </wgt>
<wgt id='1222'> +1.1418524e+02 </wgt>
<wgt id='1223'> +1.1268429e+02 </wgt>
<wgt id='1224'> +1.1109343e+02 </wgt>
<wgt id='1225'> +1.1122397e+02 </wgt>
<wgt id='1226'> +1.1253407e+02 </wgt>
<wgt id='1227'> +1.2136862e+02 </wgt>
<wgt id='1228'> +1.1072097e+02 </wgt>
<wgt id='1229'> +1.1842375e+02 </wgt>
<wgt id='1230'> +1.1579963e+02 </wgt>
<wgt id='1231'> +1.1478342e+02 </wgt>
<wgt id='1232'> +1.1535297e+02 </wgt>
<wgt id='1233'> +1.1525116e+02 </wgt>
<wgt id='1234'> +1.1411720e+02 </wgt>
<wgt id='1235'> +1.1371557e+02 </wgt>
<wgt id='1236'> +1.1602417e+02 </wgt>
<wgt id='1237'> +1.1640889e+02 </wgt>
<wgt id='1238'> +1.1117672e+02 </wgt>
<wgt id='1239'> +1.1399332e+02 </wgt>
<wgt id='1240'> +1.0714904e+02 </wgt>
<wgt id='1241'> +1.1557401e+02 </wgt>
<wgt id='1242'> +1.1671417e+02 </wgt>
<wgt id='1243'> +1.1166867e+02 </wgt>
<wgt id='1244'> +1.1347719e+02 </wgt>
<wgt id='1245'> +1.1311590e+02 </wgt>
<wgt id='1246'> +1.1413107e+02 </wgt>
<wgt id='1247'> +1.1906202e+02 </wgt>
<wgt id='1248'> +1.1722471e+02 </wgt>
<wgt id='1249'> +1.1695861e+02 </wgt>
<wgt id='1250'> +1.1726871e+02 </wgt>
<wgt id='1251'> +1.1623902e+02 </wgt>
<wgt id='1252'> +1.1586780e+02 </wgt>
<wgt id='1253'> +1.1585841e+02 </wgt>
<wgt id='1254'> +1.1598893e+02 </wgt>
<wgt id='1255'> +1.1591408e+02 </wgt>
<wgt id='1256'> +1.1605568e+02 </wgt>
<wgt id='1257'> +1.1588933e+02 </wgt>
<wgt id='1258'> +1.1590430e+02 </wgt>
<wgt id='1259'> +1.1566114e+02 </wgt>
<wgt id='1260'> +1.1577693e+02 </wgt>
<wgt id='1261'> +1.1636746e+02 </wgt>
<wgt id='1262'> +1.1560371e+02 </wgt>
<wgt id='1263'> +1.1554205e+02 </wgt>
<wgt id='1264'> +1.1616558e+02 </wgt>
<wgt id='1265'> +1.1579722e+02 </wgt>
<wgt id='1266'> +1.1705560e+02 </wgt>
<wgt id='1267'> +1.1607193e+02 </wgt>
<wgt id='1268'> +1.1654773e+02 </wgt>
<wgt id='1269'> +1.1563994e+02 </wgt>
<wgt id='1270'> +1.1560576e+02 </wgt>
<wgt id='1271'> +1.1602169e+02 </wgt>
<wgt id='1272'> +1.1608866e+02 </wgt>
<wgt id='1273'> +1.1637896e+02 </wgt>
<wgt id='1274'> +1.1631164e+02 </wgt>
<wgt id='1275'> +1.1503964e+02 </wgt>
<wgt id='1276'> +1.1570025e+02 </wgt>
<wgt id='1277'> +1.1615971e+02 </wgt>
<wgt id='1278'> +1.1505789e+02 </wgt>
<wgt id='1279'> +1.1634768e+02 </wgt>
<wgt id='1280'> +1.1633478e+02 </wgt>
<wgt id='1281'> +1.1440875e+02 </wgt>
<wgt id='1282'> +1.1465263e+02 </wgt>
<wgt id='1283'> +1.1603764e+02 </wgt>
<wgt id='1284'> +1.1589271e+02 </wgt>
<wgt id='1285'> +1.1605453e+02 </wgt>
<wgt id='1286'> +1.1597107e+02 </wgt>
<wgt id='1287'> +1.1558254e+02 </wgt>
<wgt id='1288'> +1.1583764e+02 </wgt>
<wgt id='1289'> +1.1605402e+02 </wgt>
<wgt id='1290'> +1.1582223e+02 </wgt>
<wgt id='1291'> +1.1582522e+02 </wgt>
<wgt id='1292'> +1.1572869e+02 </wgt>
<wgt id='1293'> +1.1597548e+02 </wgt>
<wgt id='1294'> +1.1567088e+02 </wgt>
<wgt id='1295'> +1.1595841e+02 </wgt>
<wgt id='1296'> +1.1581149e+02 </wgt>
<wgt id='1297'> +1.1620772e+02 </wgt>
<wgt id='1298'> +1.1622045e+02 </wgt>
<wgt id='1299'> +1.1600381e+02 </wgt>
<wgt id='1300'> +1.1606122e+02 </wgt>
<wgt id='1301'> +1.1572730e+02 </wgt>
<wgt id='1302'> +1.1581486e+02 </wgt>
<wgt id='1303'> +1.1611207e+02 </wgt>
<wgt id='1304'> +1.1585584e+02 </wgt>
<wgt id='1305'> +1.1590413e+02 </wgt>
<wgt id='1306'> +1.1593178e+02 </wgt>
<wgt id='1307'> +1.1563878e+02 </wgt>
<wgt id='1308'> +1.1579494e+02 </wgt>
<wgt id='1309'> +1.1597109e+02 </wgt>
<wgt id='1310'> +1.1582182e+02 </wgt>
<wgt id='1311'> +1.1581768e+02 </wgt>
<wgt id='1312'> +1.1619154e+02 </wgt>
<wgt id='1313'> +1.1579082e+02 </wgt>
<wgt id='1314'> +1.1591571e+02 </wgt>
<wgt id='1315'> +1.1573550e+02 </wgt>
<wgt id='1316'> +1.1566451e+02 </wgt>
<wgt id='1317'> +1.1588507e+02 </wgt>
<wgt id='1318'> +1.1592093e+02 </wgt>
<wgt id='1319'> +1.1593793e+02 </wgt>
<wgt id='1320'> +1.1608366e+02 </wgt>
<wgt id='1321'> +1.1592482e+02 </wgt>
<wgt id='1322'> +1.1575078e+02 </wgt>
<wgt id='1323'> +1.1582470e+02 </wgt>
<wgt id='1324'> +1.1597492e+02 </wgt>
<wgt id='1325'> +1.1597302e+02 </wgt>
<wgt id='1326'> +1.1577663e+02 </wgt>
<wgt id='1327'> +1.1570114e+02 </wgt>
<wgt id='1328'> +1.1587386e+02 </wgt>
<wgt id='1329'> +1.1582206e+02 </wgt>
<wgt id='1330'> +1.1604433e+02 </wgt>
<wgt id='1331'> +1.1574600e+02 </wgt>
<wgt id='1332'> +1.1587857e+02 </wgt>
<wgt id='1333'> +1.1593588e+02 </wgt>
<wgt id='1334'> +1.1590671e+02 </wgt>
<wgt id='1335'> +1.1596528e+02 </wgt>
<wgt id='1336'> +1.1580443e+02 </wgt>
<wgt id='1337'> +1.1588762e+02 </wgt>
<wgt id='1338'> +1.1587246e+02 </wgt>
<wgt id='1339'> +1.1593037e+02 </wgt>
<wgt id='1340'> +1.1580040e+02 </wgt>
<wgt id='1341'> +1.1591093e+02 </wgt>
<wgt id='1342'> +1.1585949e+02 </wgt>
<wgt id='1343'> +1.1592705e+02 </wgt>
<wgt id='1344'> +1.1591517e+02 </wgt>
<wgt id='1345'> +1.1585869e+02 </wgt>
<wgt id='1346'> +1.1580318e+02 </wgt>
<wgt id='1347'> +1.1584228e+02 </wgt>
<wgt id='1348'> +1.1582265e+02 </wgt>
<wgt id='1349'> +1.1586340e+02 </wgt>
<wgt id='1350'> +1.1588351e+02 </wgt>
<wgt id='1351'> +1.1583755e+02 </wgt>
<wgt id='1352'> +1.1579216e+02 </wgt>
<wgt id='1353'> +1.0954026e+02 </wgt>
<wgt id='1354'> +1.2243886e+02 </wgt>
<wgt id='1355'> +8.7219359e+01 </wgt>
<wgt id='1356'> +9.2289972e+01 </wgt>
<wgt id='1357'> +9.8269861e+01 </wgt>
<wgt id='1358'> +1.0416566e+02 </wgt>
<wgt id='1359'> +1.1288913e+02 </wgt>
<wgt id='1360'> +1.1895566e+02 </wgt>
<wgt id='1361'> +1.2886100e+02 </wgt>
<wgt id='1362'> +1.3560548e+02 </wgt>
<wgt id='1363'> +1.1425186e+02 </wgt>
<wgt id='1364'> +1.1426109e+02 </wgt>
<wgt id='1365'> +1.1423209e+02 </wgt>
<wgt id='1366'> +1.1435374e+02 </wgt>
<wgt id='1367'> +1.1429790e+02 </wgt>
<wgt id='1368'> +1.1443025e+02 </wgt>
<wgt id='1369'> +1.1421253e+02 </wgt>
<wgt id='1370'> +1.1453147e+02 </wgt>
<wgt id='1371'> +1.1404894e+02 </wgt>
<wgt id='1372'> +1.1457682e+02 </wgt>
<wgt id='1373'> +1.1369565e+02 </wgt>
<wgt id='1374'> +1.1415457e+02 </wgt>
<wgt id='1375'> +1.1423822e+02 </wgt>
<wgt id='1376'> +1.1426235e+02 </wgt>
<wgt id='1377'> +1.1492537e+02 </wgt>
<wgt id='1378'> +1.1352064e+02 </wgt>
<wgt id='1379'> +1.1447940e+02 </wgt>
<wgt id='1380'> +1.1413326e+02 </wgt>
<wgt id='1381'> +1.1443842e+02 </wgt>
<wgt id='1382'> +1.1390503e+02 </wgt>
<wgt id='1383'> +1.1338525e+02 </wgt>
<wgt id='1384'> +1.1495568e+02 </wgt>
<wgt id='1385'> +1.1450189e+02 </wgt>
<wgt id='1386'> +1.1468792e+02 </wgt>
<wgt id='1387'> +1.1424108e+02 </wgt>
<wgt id='1388'> +1.1343959e+02 </wgt>
<wgt id='1389'> +1.1408929e+02 </wgt>
<wgt id='1390'> +1.1438766e+02 </wgt>
<wgt id='1391'> +1.1467364e+02 </wgt>
<wgt id='1392'> +1.1471481e+02 </wgt>
<wgt id='1393'> +1.1232766e+02 </wgt>
<wgt id='1394'> +1.1419331e+02 </wgt>
<wgt id='1395'> +1.1400030e+02 </wgt>
<wgt id='1396'> +1.1494808e+02 </wgt>
<wgt id='1397'> +1.1432597e+02 </wgt>
<wgt id='1398'> +1.1444792e+02 </wgt>
<wgt id='1399'> +1.1432028e+02 </wgt>
<wgt id='1400'> +1.1363249e+02 </wgt>
<wgt id='1401'> +1.1427052e+02 </wgt>
<wgt id='1402'> +1.1420609e+02 </wgt>
<wgt id='1403'> +1.1426158e+02 </wgt>
<wgt id='1404'> +1.1413506e+02 </wgt>
<wgt id='1405'> +1.1435148e+02 </wgt>
<wgt id='1406'> +1.1388943e+02 </wgt>
<wgt id='1407'> +1.1419190e+02 </wgt>
<wgt id='1408'> +1.1436420e+02 </wgt>
<wgt id='1409'> +1.1429092e+02 </wgt>
<wgt id='1410'> +1.1395826e+02 </wgt>
<wgt id='1411'> +1.1423880e+02 </wgt>
<wgt id='1412'> +1.1444063e+02 </wgt>
<wgt id='1413'> +1.1415640e+02 </wgt>
<wgt id='1414'> +1.1437162e+02 </wgt>
<wgt id='1415'> +1.1433635e+02 </wgt>
<wgt id='1416'> +1.1412329e+02 </wgt>
<wgt id='1417'> +1.1400239e+02 </wgt>
<wgt id='1418'> +1.1411172e+02 </wgt>
<wgt id='1419'> +1.1435931e+02 </wgt>
<wgt id='1420'> +1.1426243e+02 </wgt>
<wgt id='1421'> +1.1418612e+02 </wgt>
<wgt id='1422'> +1.1425681e+02 </wgt>
<wgt id='1423'> +1.1423206e+02 </wgt>
<wgt id='1424'> +1.1429392e+02 </wgt>
<wgt id='1425'> +1.1413161e+02 </wgt>
<wgt id='1426'> +1.1440950e+02 </wgt>
<wgt id='1427'> +1.1420724e+02 </wgt>
<wgt id='1428'> +1.1420404e+02 </wgt>
<wgt id='1429'> +1.1437674e+02 </wgt>
<wgt id='1430'> +1.1399686e+02 </wgt>
<wgt id='1431'> +1.1433221e+02 </wgt>
<wgt id='1432'> +1.1423837e+02 </wgt>
<wgt id='1433'> +1.1400332e+02 </wgt>
<wgt id='1434'> +1.1426487e+02 </wgt>
<wgt id='1435'> +1.1416553e+02 </wgt>
<wgt id='1436'> +1.1421341e+02 </wgt>
<wgt id='1437'> +1.1451084e+02 </wgt>
<wgt id='1438'> +1.1410387e+02 </wgt>
<wgt id='1439'> +1.1432684e+02 </wgt>
<wgt id='1440'> +1.1412059e+02 </wgt>
<wgt id='1441'> +1.1433108e+02 </wgt>
<wgt id='1442'> +1.1414713e+02 </wgt>
<wgt id='1443'> +1.1436500e+02 </wgt>
<wgt id='1444'> +1.1446705e+02 </wgt>
<wgt id='1445'> +1.1424967e+02 </wgt>
<wgt id='1446'> +1.1430358e+02 </wgt>
<wgt id='1447'> +1.1417773e+02 </wgt>
<wgt id='1448'> +1.1437812e+02 </wgt>
<wgt id='1449'> +1.1426427e+02 </wgt>
<wgt id='1450'> +1.1419794e+02 </wgt>
<wgt id='1451'> +1.1432287e+02 </wgt>
<wgt id='1452'> +1.1434345e+02 </wgt>
<wgt id='1453'> +1.1433209e+02 </wgt>
<wgt id='1454'> +1.1419182e+02 </wgt>
<wgt id='1455'> +1.1424877e+02 </wgt>
<wgt id='1456'> +1.1427154e+02 </wgt>
<wgt id='1457'> +1.1418913e+02 </wgt>
<wgt id='1458'> +1.1421037e+02 </wgt>
<wgt id='1459'> +1.1427463e+02 </wgt>
<wgt id='1460'> +1.1423143e+02 </wgt>
<wgt id='1461'> +1.1426390e+02 </wgt>
<wgt id='1462'> +1.1430274e+02 </wgt>
<wgt id='1463'> +1.1424731e+02 </wgt>
<wgt id='1464'> +1.0824248e+02 </wgt>
<wgt id='1465'> +1.2075135e+02 </wgt>
<wgt id='1466'> +1.1319522e+02 </wgt>
<wgt id='1467'> +1.1334530e+02 </wgt>
<wgt id='1468'> +1.1274717e+02 </wgt>
<wgt id='1469'> +1.1302724e+02 </wgt>
<wgt id='1470'> +1.1313386e+02 </wgt>
<wgt id='1471'> +1.1334514e+02 </wgt>
<wgt id='1472'> +1.1285272e+02 </wgt>
<wgt id='1473'> +1.1317332e+02 </wgt>
<wgt id='1474'> +1.1251743e+02 </wgt>
<wgt id='1475'> +1.1370999e+02 </wgt>
<wgt id='1476'> +1.1287909e+02 </wgt>
<wgt id='1477'> +1.1369904e+02 </wgt>
<wgt id='1478'> +1.1176518e+02 </wgt>
<wgt id='1479'> +1.1240358e+02 </wgt>
<wgt id='1480'> +1.1326337e+02 </wgt>
<wgt id='1481'> +1.1324256e+02 </wgt>
<wgt id='1482'> +1.1264619e+02 </wgt>
<wgt id='1483'> +1.1346916e+02 </wgt>
<wgt id='1484'> +1.1294156e+02 </wgt>
<wgt id='1485'> +1.1365630e+02 </wgt>
<wgt id='1486'> +1.1272002e+02 </wgt>
<wgt id='1487'> +1.1247853e+02 </wgt>
<wgt id='1488'> +1.1361081e+02 </wgt>
<wgt id='1489'> +1.1232377e+02 </wgt>
<wgt id='1490'> +1.1412361e+02 </wgt>
<wgt id='1491'> +1.1264123e+02 </wgt>
<wgt id='1492'> +1.1366237e+02 </wgt>
<wgt id='1493'> +1.1296357e+02 </wgt>
<wgt id='1494'> +1.1355419e+02 </wgt>
<wgt id='1495'> +1.1235372e+02 </wgt>
<wgt id='1496'> +1.1370560e+02 </wgt>
<wgt id='1497'> +1.1364479e+02 </wgt>
<wgt id='1498'> +1.1245946e+02 </wgt>
<wgt id='1499'> +1.1383676e+02 </wgt>
<wgt id='1500'> +1.1259687e+02 </wgt>
<wgt id='1501'> +1.1534268e+02 </wgt>
<wgt id='1502'> +1.1150496e+02 </wgt>
<wgt id='1503'> +1.1566262e+02 </wgt>
<wgt id='1504'> +1.1043053e+02 </wgt>
<wgt id='1505'> +1.1575777e+02 </wgt>
<wgt id='1506'> +1.1053566e+02 </wgt>
<wgt id='1507'> +1.1313626e+02 </wgt>
<wgt id='1508'> +1.1334549e+02 </wgt>
<wgt id='1509'> +1.1325047e+02 </wgt>
<wgt id='1510'> +1.1250684e+02 </wgt>
<wgt id='1511'> +1.1327391e+02 </wgt>
<wgt id='1512'> +1.1344717e+02 </wgt>
<wgt id='1513'> +1.1115827e+02 </wgt>
<wgt id='1514'> +1.1514443e+02 </wgt>
<wgt id='1515'> +1.1385693e+02 </wgt>
<wgt id='1516'> +1.1244257e+02 </wgt>
<wgt id='1517'> +1.1339334e+02 </wgt>
<wgt id='1518'> +1.1383997e+02 </wgt>
<wgt id='1519'> +1.1159323e+02 </wgt>
<wgt id='1520'> +1.1104928e+02 </wgt>
<wgt id='1521'> +1.1119046e+02 </wgt>
<wgt id='1522'> +1.1597229e+02 </wgt>
<wgt id='1523'> +1.0725681e+02 </wgt>
<wgt id='1524'> +1.1938489e+02 </wgt>
<wgt id='1525'> +1.1116576e+02 </wgt>
<wgt id='1526'> +1.1168829e+02 </wgt>
<wgt id='1527'> +1.1129914e+02 </wgt>
<wgt id='1528'> +1.1083828e+02 </wgt>
<wgt id='1529'> +1.1137983e+02 </wgt>
<wgt id='1530'> +1.1033853e+02 </wgt>
<wgt id='1531'> +1.1174363e+02 </wgt>
<wgt id='1532'> +1.1101710e+02 </wgt>
<wgt id='1533'> +1.1247447e+02 </wgt>
<wgt id='1534'> +1.0980535e+02 </wgt>
<wgt id='1535'> +1.1266504e+02 </wgt>
<wgt id='1536'> +1.1206184e+02 </wgt>
<wgt id='1537'> +1.1065916e+02 </wgt>
<wgt id='1538'> +1.0983585e+02 </wgt>
<wgt id='1539'> +1.1144389e+02 </wgt>
<wgt id='1540'> +1.1283205e+02 </wgt>
<wgt id='1541'> +1.0878908e+02 </wgt>
<wgt id='1542'> +1.1381544e+02 </wgt>
<wgt id='1543'> +1.0816421e+02 </wgt>
<wgt id='1544'> +1.1221130e+02 </wgt>
<wgt id='1545'> +1.0999398e+02 </wgt>
<wgt id='1546'> +1.1100566e+02 </wgt>
<wgt id='1547'> +1.1113858e+02 </wgt>
<wgt id='1548'> +1.1097212e+02 </wgt>
<wgt id='1549'> +1.1137003e+02 </wgt>
<wgt id='1550'> +1.1131118e+02 </wgt>
<wgt id='1551'> +1.1105227e+02 </wgt>
<wgt id='1552'> +1.1189612e+02 </wgt>
<wgt id='1553'> +1.1013290e+02 </wgt>
<wgt id='1554'> +1.1052360e+02 </wgt>
<wgt id='1555'> +1.1138637e+02 </wgt>
<wgt id='1556'> +1.1068323e+02 </wgt>
<wgt id='1557'> +1.1177161e+02 </wgt>
<wgt id='1558'> +1.1169961e+02 </wgt>
<wgt id='1559'> +1.0996699e+02 </wgt>
<wgt id='1560'> +1.1029853e+02 </wgt>
<wgt id='1561'> +1.1210355e+02 </wgt>
<wgt id='1562'> +1.1134650e+02 </wgt>
<wgt id='1563'> +1.1052285e+02 </wgt>
<wgt id='1564'> +1.0960326e+02 </wgt>
<wgt id='1565'> +1.1180812e+02 </wgt>
<wgt id='1566'> +1.1182496e+02 </wgt>
<wgt id='1567'> +1.1060285e+02 </wgt>
<wgt id='1568'> +1.1127431e+02 </wgt>
<wgt id='1569'> +1.1096131e+02 </wgt>
<wgt id='1570'> +1.1091769e+02 </wgt>
<wgt id='1571'> +1.1043517e+02 </wgt>
<wgt id='1572'> +1.1056418e+02 </wgt>
<wgt id='1573'> +1.1093966e+02 </wgt>
<wgt id='1574'> +1.1046267e+02 </wgt>
<wgt id='1575'> +1.1117620e+02 </wgt>
<wgt id='1576'> +1.1106411e+02 </wgt>
<wgt id='1577'> +1.1132642e+02 </wgt>
<wgt id='1578'> +1.1070629e+02 </wgt>
<wgt id='1579'> +1.1070119e+02 </wgt>
<wgt id='1580'> +1.0983136e+02 </wgt>
<wgt id='1581'> +1.1309700e+02 </wgt>
<wgt id='1582'> +1.0534582e+02 </wgt>
<wgt id='1583'> +1.1704833e+02 </wgt>
<wgt id='1584'> +9.7525878e+01 </wgt>
<wgt id='1585'> +1.0680777e+02 </wgt>
<wgt id='1586'> +1.0653432e+02 </wgt>
<wgt id='1587'> +1.0710350e+02 </wgt>
<wgt id='1588'> +1.0643232e+02 </wgt>
<wgt id='1589'> +1.0705892e+02 </wgt>
<wgt id='1590'> +1.0665330e+02 </wgt>
<wgt id='1591'> +1.0695315e+02 </wgt>
<wgt id='1592'> +1.0715026e+02 </wgt>
<wgt id='1593'> +1.0642218e+02 </wgt>
<wgt id='1594'> +1.0623572e+02 </wgt>
<wgt id='1595'> +1.0736230e+02 </wgt>
<wgt id='1596'> +1.0664918e+02 </wgt>
<wgt id='1597'> +1.0715428e+02 </wgt>
<wgt id='1598'> +1.0651073e+02 </wgt>
<wgt id='1599'> +1.0733427e+02 </wgt>
<wgt id='1600'> +1.0689351e+02 </wgt>
<wgt id='1601'> +1.0675915e+02 </wgt>
<wgt id='1602'> +1.0757287e+02 </wgt>
<wgt id='1603'> +1.0590848e+02 </wgt>
<wgt id='1604'> +1.0641877e+02 </wgt>
<wgt id='1605'> +1.0714313e+02 </wgt>
<wgt id='1606'> +1.0736042e+02 </wgt>
<wgt id='1607'> +1.0609145e+02 </wgt>
<wgt id='1608'> +1.0817781e+02 </wgt>
<wgt id='1609'> +1.0588985e+02 </wgt>
<wgt id='1610'> +1.0686017e+02 </wgt>
<wgt id='1611'> +1.0670282e+02 </wgt>
<wgt id='1612'> +1.0704543e+02 </wgt>
<wgt id='1613'> +1.0670894e+02 </wgt>
<wgt id='1614'> +1.0738635e+02 </wgt>
<wgt id='1615'> +1.0612493e+02 </wgt>
<wgt id='1616'> +1.0786716e+02 </wgt>
<wgt id='1617'> +1.0557026e+02 </wgt>
<wgt id='1618'> +1.0631941e+02 </wgt>
<wgt id='1619'> +1.0726183e+02 </wgt>
<wgt id='1620'> +1.0669125e+02 </wgt>
<wgt id='1621'> +1.0660137e+02 </wgt>
<wgt id='1622'> +1.0648766e+02 </wgt>
<wgt id='1623'> +1.0710601e+02 </wgt>
<wgt id='1624'> +1.0676954e+02 </wgt>
<wgt id='1625'> +1.0680097e+02 </wgt>
<wgt id='1626'> +1.0548070e+02 </wgt>
<wgt id='1627'> +1.0806263e+02 </wgt>
<wgt id='1628'> +1.0730046e+02 </wgt>
<wgt id='1629'> +1.0612517e+02 </wgt>
<wgt id='1630'> +1.0628524e+02 </wgt>
<wgt id='1631'> +1.0808697e+02 </wgt>
<wgt id='1632'> +1.0700495e+02 </wgt>
<wgt id='1633'> +1.0606221e+02 </wgt>
<wgt id='1634'> +1.0661034e+02 </wgt>
<wgt id='1635'> +1.0706635e+02 </wgt>
<wgt id='1636'> +1.1209723e+02 </wgt>
<wgt id='1637'> +1.1180659e+02 </wgt>
<wgt id='1638'> +1.1247271e+02 </wgt>
<wgt id='1639'> +1.1209807e+02 </wgt>
<wgt id='1640'> +1.1209737e+02 </wgt>
<wgt id='1641'> +1.1155031e+02 </wgt>
<wgt id='1642'> +1.1231760e+02 </wgt>
<wgt id='1643'> +1.1234968e+02 </wgt>
<wgt id='1644'> +1.1184018e+02 </wgt>
<wgt id='1645'> +1.1175218e+02 </wgt>
<wgt id='1646'> +1.1243126e+02 </wgt>
<wgt id='1647'> +1.1294089e+02 </wgt>
<wgt id='1648'> +1.1173492e+02 </wgt>
<wgt id='1649'> +1.1203354e+02 </wgt>
<wgt id='1650'> +1.1217483e+02 </wgt>
<wgt id='1651'> +1.1179738e+02 </wgt>
<wgt id='1652'> +1.1241997e+02 </wgt>
<wgt id='1653'> +1.1283740e+02 </wgt>
<wgt id='1654'> +1.1167744e+02 </wgt>
<wgt id='1655'> +1.1258127e+02 </wgt>
<wgt id='1656'> +1.1143729e+02 </wgt>
<wgt id='1657'> +1.1166274e+02 </wgt>
<wgt id='1658'> +1.1240322e+02 </wgt>
<wgt id='1659'> +1.1096873e+02 </wgt>
<wgt id='1660'> +1.1319914e+02 </wgt>
<wgt id='1661'> +1.1154729e+02 </wgt>
<wgt id='1662'> +1.1344521e+02 </wgt>
<wgt id='1663'> +1.1208432e+02 </wgt>
<wgt id='1664'> +1.1216495e+02 </wgt>
<wgt id='1665'> +1.1158304e+02 </wgt>
<wgt id='1666'> +1.1350598e+02 </wgt>
<wgt id='1667'> +1.1257971e+02 </wgt>
<wgt id='1668'> +1.1094889e+02 </wgt>
<wgt id='1669'> +1.1190534e+02 </wgt>
<wgt id='1670'> +1.1223150e+02 </wgt>
<wgt id='1671'> +1.1235001e+02 </wgt>
<wgt id='1672'> +1.1178961e+02 </wgt>
<wgt id='1673'> +1.1214668e+02 </wgt>
<wgt id='1674'> +1.1202320e+02 </wgt>
<wgt id='1675'> +1.1208677e+02 </wgt>
<wgt id='1676'> +1.1205071e+02 </wgt>
<wgt id='1677'> +1.1312095e+02 </wgt>
<wgt id='1678'> +1.0986266e+02 </wgt>
<wgt id='1679'> +1.1233479e+02 </wgt>
<wgt id='1680'> +1.1115417e+02 </wgt>
<wgt id='1681'> +1.1140601e+02 </wgt>
<wgt id='1682'> +1.1242984e+02 </wgt>
<wgt id='1683'> +1.1320339e+02 </wgt>
<wgt id='1684'> +1.1157316e+02 </wgt>
<wgt id='1685'> +1.1199258e+02 </wgt>
<wgt id='1686'> +1.1185837e+02 </wgt>
<wgt id='1687'> +1.3401582e+02 </wgt>
<wgt id='1688'> +1.1627657e+02 </wgt>
<wgt id='1689'> +1.1624308e+02 </wgt>
<wgt id='1690'> +1.1614691e+02 </wgt>
<wgt id='1691'> +1.1650688e+02 </wgt>
<wgt id='1692'> +1.1627824e+02 </wgt>
<wgt id='1693'> +1.1639341e+02 </wgt>
<wgt id='1694'> +1.1610326e+02 </wgt>
<wgt id='1695'> +1.1650620e+02 </wgt>
<wgt id='1696'> +1.1563754e+02 </wgt>
<wgt id='1697'> +1.1605209e+02 </wgt>
<wgt id='1698'> +1.1635442e+02 </wgt>
<wgt id='1699'> +1.1597407e+02 </wgt>
<wgt id='1700'> +1.1650913e+02 </wgt>
<wgt id='1701'> +1.1631876e+02 </wgt>
<wgt id='1702'> +1.1604877e+02 </wgt>
<wgt id='1703'> +1.1636223e+02 </wgt>
<wgt id='1704'> +1.1625039e+02 </wgt>
<wgt id='1705'> +1.1595499e+02 </wgt>
<wgt id='1706'> +1.1592553e+02 </wgt>
<wgt id='1707'> +1.1625698e+02 </wgt>
<wgt id='1708'> +1.1579034e+02 </wgt>
<wgt id='1709'> +1.1599861e+02 </wgt>
<wgt id='1710'> +1.1624377e+02 </wgt>
<wgt id='1711'> +1.1624646e+02 </wgt>
<wgt id='1712'> +1.1652257e+02 </wgt>
<wgt id='1713'> +1.1629528e+02 </wgt>
<wgt id='1714'> +1.1589189e+02 </wgt>
<wgt id='1715'> +1.1599226e+02 </wgt>
<wgt id='1716'> +1.1653165e+02 </wgt>
<wgt id='1717'> +1.1560100e+02 </wgt>
<wgt id='1718'> +1.0911922e+02 </wgt>
<wgt id='1719'> +1.0871440e+02 </wgt>
<wgt id='1720'> +1.0836569e+02 </wgt>
<wgt id='1721'> +1.0998057e+02 </wgt>
<wgt id='1722'> +1.0880330e+02 </wgt>
<wgt id='1723'> +1.0942534e+02 </wgt>
<wgt id='1724'> +1.0824297e+02 </wgt>
<wgt id='1725'> +1.0955839e+02 </wgt>
<wgt id='1726'> +1.0910920e+02 </wgt>
<wgt id='1727'> +1.0889118e+02 </wgt>
<wgt id='1728'> +1.0867638e+02 </wgt>
<wgt id='1729'> +1.0819419e+02 </wgt>
<wgt id='1730'> +1.0887352e+02 </wgt>
<wgt id='1731'> +1.1000560e+02 </wgt>
<wgt id='1732'> +1.0868707e+02 </wgt>
<wgt id='1733'> +1.0896713e+02 </wgt>
<wgt id='1734'> +1.0833680e+02 </wgt>
<wgt id='1735'> +1.0912952e+02 </wgt>
<wgt id='1736'> +1.1046973e+02 </wgt>
<wgt id='1737'> +1.0855241e+02 </wgt>
<wgt id='1738'> +1.0916953e+02 </wgt>
<wgt id='1739'> +1.0936642e+02 </wgt>
<wgt id='1740'> +1.0844499e+02 </wgt>
<wgt id='1741'> +1.1012757e+02 </wgt>
<wgt id='1742'> +1.0899009e+02 </wgt>
<wgt id='1743'> +1.0971714e+02 </wgt>
<wgt id='1744'> +1.0926430e+02 </wgt>
<wgt id='1745'> +1.0888036e+02 </wgt>
<wgt id='1746'> +1.0966662e+02 </wgt>
<wgt id='1747'> +1.0914365e+02 </wgt>
<wgt id='1748'> +1.0914476e+02 </wgt>
<wgt id='1749'> +1.0914561e+02 </wgt>
<wgt id='1750'> +1.0873888e+02 </wgt>
<wgt id='1751'> +1.0909563e+02 </wgt>
<wgt id='1752'> +1.0960599e+02 </wgt>
<wgt id='1753'> +1.0961069e+02 </wgt>
<wgt id='1754'> +1.0875082e+02 </wgt>
<wgt id='1755'> +1.0896115e+02 </wgt>
<wgt id='1756'> +1.0910630e+02 </wgt>
<wgt id='1757'> +1.0943794e+02 </wgt>
<wgt id='1758'> +1.0929654e+02 </wgt>
<wgt id='1759'> +1.0939217e+02 </wgt>
<wgt id='1760'> +1.0906510e+02 </wgt>
<wgt id='1761'> +1.0889360e+02 </wgt>
<wgt id='1762'> +1.0932088e+02 </wgt>
<wgt id='1763'> +1.0939934e+02 </wgt>
<wgt id='1764'> +1.0931486e+02 </wgt>
<wgt id='1765'> +1.0899229e+02 </wgt>
<wgt id='1766'> +1.0891449e+02 </wgt>
<wgt id='1767'> +1.0923496e+02 </wgt>
<wgt id='1768'> +1.0914890e+02 </wgt>
<wgt id='1769'> +1.0897970e+02 </wgt>
<wgt id='1770'> +1.0930806e+02 </wgt>
<wgt id='1771'> +1.0885983e+02 </wgt>
<wgt id='1772'> +1.0903640e+02 </wgt>
<wgt id='1773'> +1.0923578e+02 </wgt>
<wgt id='1774'> +1.0909994e+02 </wgt>
<wgt id='1775'> +1.0891488e+02 </wgt>
<wgt id='1776'> +1.0917722e+02 </wgt>
<wgt id='1777'> +1.0911262e+02 </wgt>
<wgt id='1778'> +1.0910730e+02 </wgt>
<wgt id='1779'> +1.0920645e+02 </wgt>
<wgt id='1780'> +1.0901031e+02 </wgt>
<wgt id='1781'> +1.0902456e+02 </wgt>
<wgt id='1782'> +1.0908370e+02 </wgt>
<wgt id='1783'> +1.0908873e+02 </wgt>
<wgt id='1784'> +1.0892901e+02 </wgt>
<wgt id='1785'> +1.0897969e+02 </wgt>
<wgt id='1786'> +1.0914439e+02 </wgt>
<wgt id='1787'> +1.0915026e+02 </wgt>
<wgt id='1788'> +1.0925771e+02 </wgt>
<wgt id='1789'> +1.0908788e+02 </wgt>
<wgt id='1790'> +1.0897676e+02 </wgt>
<wgt id='1791'> +1.0906404e+02 </wgt>
<wgt id='1792'> +1.0914546e+02 </wgt>
<wgt id='1793'> +1.0907655e+02 </wgt>
<wgt id='1794'> +1.0908521e+02 </wgt>
<wgt id='1795'> +1.0906214e+02 </wgt>
<wgt id='1796'> +1.0912506e+02 </wgt>
<wgt id='1797'> +1.0912226e+02 </wgt>
<wgt id='1798'> +1.0907874e+02 </wgt>
<wgt id='1799'> +1.0908616e+02 </wgt>
<wgt id='1800'> +1.0913287e+02 </wgt>
<wgt id='1801'> +1.0913192e+02 </wgt>
<wgt id='1802'> +1.0914726e+02 </wgt>
<wgt id='1803'> +1.0913963e+02 </wgt>
<wgt id='1804'> +1.0916807e+02 </wgt>
<wgt id='1805'> +1.0913293e+02 </wgt>
<wgt id='1806'> +1.0909076e+02 </wgt>
<wgt id='1807'> +1.0909391e+02 </wgt>
<wgt id='1808'> +1.0913321e+02 </wgt>
<wgt id='1809'> +1.0906371e+02 </wgt>
<wgt id='1810'> +1.0910206e+02 </wgt>
<wgt id='1811'> +1.0904685e+02 </wgt>
<wgt id='1812'> +1.0913150e+02 </wgt>
<wgt id='1813'> +1.0915371e+02 </wgt>
<wgt id='1814'> +1.0914335e+02 </wgt>
<wgt id='1815'> +1.0912977e+02 </wgt>
<wgt id='1816'> +1.0910048e+02 </wgt>
<wgt id='1817'> +1.0912605e+02 </wgt>
<wgt id='1818'> +1.0912950e+02 </wgt>
<wgt id='1819'> +1.0445757e+02 </wgt>
<wgt id='1820'> +1.1364236e+02 </wgt>
<wgt id='1821'> +1.1243656e+02 </wgt>
<wgt id='1822'> +1.1256128e+02 </wgt>
<wgt id='1823'> +1.1208388e+02 </wgt>
<wgt id='1824'> +1.1269979e+02 </wgt>
<wgt id='1825'> +1.1304212e+02 </wgt>
<wgt id='1826'> +1.1308424e+02 </wgt>
<wgt id='1827'> +1.1287241e+02 </wgt>
<wgt id='1828'> +1.1262191e+02 </wgt>
<wgt id='1829'> +1.1245811e+02 </wgt>
<wgt id='1830'> +1.1253277e+02 </wgt>
<wgt id='1831'> +1.1237590e+02 </wgt>
<wgt id='1832'> +1.1330839e+02 </wgt>
<wgt id='1833'> +1.1248161e+02 </wgt>
<wgt id='1834'> +1.1286302e+02 </wgt>
<wgt id='1835'> +1.1201812e+02 </wgt>
<wgt id='1836'> +1.1249617e+02 </wgt>
<wgt id='1837'> +1.1234404e+02 </wgt>
<wgt id='1838'> +1.1231371e+02 </wgt>
<wgt id='1839'> +1.1304937e+02 </wgt>
<wgt id='1840'> +1.1116068e+02 </wgt>
<wgt id='1841'> +1.1251599e+02 </wgt>
<wgt id='1842'> +1.1284339e+02 </wgt>
<wgt id='1843'> +1.1153945e+02 </wgt>
<wgt id='1844'> +1.1307160e+02 </wgt>
<wgt id='1845'> +1.1329304e+02 </wgt>
<wgt id='1846'> +1.1229441e+02 </wgt>
<wgt id='1847'> +1.1224101e+02 </wgt>
<wgt id='1848'> +1.1264687e+02 </wgt>
<wgt id='1849'> +1.1229070e+02 </wgt>
<wgt id='1850'> +1.1221734e+02 </wgt>
<wgt id='1851'> +1.1230694e+02 </wgt>
<wgt id='1852'> +1.1291421e+02 </wgt>
<wgt id='1853'> +1.1260500e+02 </wgt>
<wgt id='1854'> +1.1271734e+02 </wgt>
<wgt id='1855'> +1.1273307e+02 </wgt>
<wgt id='1856'> +1.1202108e+02 </wgt>
<wgt id='1857'> +1.1323354e+02 </wgt>
<wgt id='1858'> +1.1236917e+02 </wgt>
<wgt id='1859'> +1.1237677e+02 </wgt>
<wgt id='1860'> +1.1244170e+02 </wgt>
<wgt id='1861'> +1.1199123e+02 </wgt>
<wgt id='1862'> +1.1231319e+02 </wgt>
<wgt id='1863'> +1.1263568e+02 </wgt>
<wgt id='1864'> +1.1219243e+02 </wgt>
<wgt id='1865'> +1.1255348e+02 </wgt>
<wgt id='1866'> +1.1222708e+02 </wgt>
<wgt id='1867'> +1.1211944e+02 </wgt>
<wgt id='1868'> +1.1199104e+02 </wgt>
<wgt id='1869'> +1.1246394e+02 </wgt>
<wgt id='1870'> +1.1216714e+02 </wgt>
<wgt id='1871'> +1.1235214e+02 </wgt>
<wgt id='1872'> +1.1240724e+02 </wgt>
<wgt id='1873'> +1.1255913e+02 </wgt>
<wgt id='1874'> +1.1226597e+02 </wgt>
<wgt id='1875'> +1.1225898e+02 </wgt>
<wgt id='1876'> +1.1237318e+02 </wgt>
<wgt id='1877'> +1.1259918e+02 </wgt>
<wgt id='1878'> +1.1236415e+02 </wgt>
<wgt id='1879'> +1.1223283e+02 </wgt>
<wgt id='1880'> +1.1245822e+02 </wgt>
<wgt id='1881'> +1.1240530e+02 </wgt>
<wgt id='1882'> +1.1246164e+02 </wgt>
<wgt id='1883'> +1.1257527e+02 </wgt>
<wgt id='1884'> +1.1231037e+02 </wgt>
<wgt id='1885'> +1.1233552e+02 </wgt>
<wgt id='1886'> +1.1251526e+02 </wgt>
<wgt id='1887'> +1.1249410e+02 </wgt>
<wgt id='1888'> +1.1247104e+02 </wgt>
<wgt id='1889'> +1.1231952e+02 </wgt>
<wgt id='1890'> +1.1256187e+02 </wgt>
<wgt id='1891'> +1.1253229e+02 </wgt>
<wgt id='1892'> +1.1244024e+02 </wgt>
<wgt id='1893'> +1.1253606e+02 </wgt>
<wgt id='1894'> +1.1238703e+02 </wgt>
<wgt id='1895'> +1.1240422e+02 </wgt>
<wgt id='1896'> +1.1238982e+02 </wgt>
<wgt id='1897'> +1.1241650e+02 </wgt>
<wgt id='1898'> +1.1250695e+02 </wgt>
<wgt id='1899'> +1.1244586e+02 </wgt>
<wgt id='1900'> +1.1250877e+02 </wgt>
<wgt id='1901'> +1.1244557e+02 </wgt>
<wgt id='1902'> +1.1243154e+02 </wgt>
<wgt id='1903'> +1.1241651e+02 </wgt>
<wgt id='1904'> +1.1240980e+02 </wgt>
<wgt id='1905'> +1.1241395e+02 </wgt>
<wgt id='1906'> +1.1238047e+02 </wgt>
<wgt id='1907'> +1.1241743e+02 </wgt>
<wgt id='1908'> +1.1237577e+02 </wgt>
<wgt id='1909'> +1.1242676e+02 </wgt>
<wgt id='1910'> +1.1238682e+02 </wgt>
<wgt id='1911'> +1.1248373e+02 </wgt>
<wgt id='1912'> +1.1242861e+02 </wgt>
<wgt id='1913'> +1.1245154e+02 </wgt>
<wgt id='1914'> +1.1241072e+02 </wgt>
<wgt id='1915'> +1.1238595e+02 </wgt>
<wgt id='1916'> +1.1247973e+02 </wgt>
<wgt id='1917'> +1.1243101e+02 </wgt>
<wgt id='1918'> +1.1241709e+02 </wgt>
<wgt id='1919'> +1.1241746e+02 </wgt>
<wgt id='1920'> +1.1243123e+02 </wgt>
<wgt id='1921'> +1.1244397e+02 </wgt>
<wgt id='1922'> +1.0770203e+02 </wgt>
<wgt id='1923'> +1.1715376e+02 </wgt>
<wgt id='1924'> +1.0921662e+02 </wgt>
<wgt id='1925'> +1.0856261e+02 </wgt>
<wgt id='1926'> +1.0740096e+02 </wgt>
<wgt id='1927'> +1.0913245e+02 </wgt>
<wgt id='1928'> +1.1056438e+02 </wgt>
<wgt id='1929'> +1.0903916e+02 </wgt>
<wgt id='1930'> +1.0924649e+02 </wgt>
<wgt id='1931'> +1.0918577e+02 </wgt>
<wgt id='1932'> +1.0952126e+02 </wgt>
<wgt id='1933'> +1.0941362e+02 </wgt>
<wgt id='1934'> +1.0940956e+02 </wgt>
<wgt id='1935'> +1.0873749e+02 </wgt>
<wgt id='1936'> +1.1024170e+02 </wgt>
<wgt id='1937'> +1.0919414e+02 </wgt>
<wgt id='1938'> +1.0869141e+02 </wgt>
<wgt id='1939'> +1.0949745e+02 </wgt>
<wgt id='1940'> +1.0922026e+02 </wgt>
<wgt id='1941'> +1.0890810e+02 </wgt>
<wgt id='1942'> +1.0917269e+02 </wgt>
<wgt id='1943'> +1.0958900e+02 </wgt>
<wgt id='1944'> +1.1036570e+02 </wgt>
<wgt id='1945'> +1.0882727e+02 </wgt>
<wgt id='1946'> +1.0891017e+02 </wgt>
<wgt id='1947'> +1.0929331e+02 </wgt>
<wgt id='1948'> +1.0875700e+02 </wgt>
<wgt id='1949'> +1.0930769e+02 </wgt>
<wgt id='1950'> +1.0898573e+02 </wgt>
<wgt id='1951'> +1.0911498e+02 </wgt>
<wgt id='1952'> +1.0919161e+02 </wgt>
<wgt id='1953'> +1.0911784e+02 </wgt>
<wgt id='1954'> +1.0943927e+02 </wgt>
<wgt id='1955'> +1.0445757e+02 </wgt>
<wgt id='1956'> +1.1364236e+02 </wgt>
<wgt id='1957'> +1.1244256e+02 </wgt>
<wgt id='1958'> +1.1252094e+02 </wgt>
<wgt id='1959'> +1.1303206e+02 </wgt>
<wgt id='1960'> +1.1237632e+02 </wgt>
<wgt id='1961'> +1.1104896e+02 </wgt>
<wgt id='1962'> +1.1157874e+02 </wgt>
<wgt id='1963'> +1.1246187e+02 </wgt>
<wgt id='1964'> +1.1229732e+02 </wgt>
<wgt id='1965'> +1.1222995e+02 </wgt>
<wgt id='1966'> +1.1159526e+02 </wgt>
<wgt id='1967'> +1.1219033e+02 </wgt>
<wgt id='1968'> +1.1336859e+02 </wgt>
<wgt id='1969'> +1.1262193e+02 </wgt>
<wgt id='1970'> +1.1238408e+02 </wgt>
<wgt id='1971'> +1.1236324e+02 </wgt>
<wgt id='1972'> +1.1234889e+02 </wgt>
<wgt id='1973'> +1.1226906e+02 </wgt>
<wgt id='1974'> +1.1164042e+02 </wgt>
<wgt id='1975'> +1.1242961e+02 </wgt>
<wgt id='1976'> +1.1274904e+02 </wgt>
<wgt id='1977'> +1.1177906e+02 </wgt>
<wgt id='1978'> +1.1220108e+02 </wgt>
<wgt id='1979'> +1.1263860e+02 </wgt>
<wgt id='1980'> +1.1242473e+02 </wgt>
<wgt id='1981'> +1.1253713e+02 </wgt>
<wgt id='1982'> +1.1256791e+02 </wgt>
<wgt id='1983'> +1.1221507e+02 </wgt>
<wgt id='1984'> +1.1275227e+02 </wgt>
<wgt id='1985'> +1.1287630e+02 </wgt>
<wgt id='1986'> +1.1237600e+02 </wgt>
<wgt id='1987'> +1.1386405e+02 </wgt>
<wgt id='1988'> +1.0770203e+02 </wgt>
<wgt id='1989'> +1.1715376e+02 </wgt>
<wgt id='1990'> +1.2404072e+02 </wgt>
<wgt id='1991'> +1.2423304e+02 </wgt>
<wgt id='1992'> +1.2384942e+02 </wgt>
<wgt id='1993'> +1.2376519e+02 </wgt>
<wgt id='1994'> +1.2431626e+02 </wgt>
<wgt id='1995'> +1.2392865e+02 </wgt>
<wgt id='1996'> +1.2415176e+02 </wgt>
<wgt id='1997'> +1.2383903e+02 </wgt>
<wgt id='1998'> +1.2423096e+02 </wgt>
<wgt id='1999'> +1.2492632e+02 </wgt>
<wgt id='2000'> +1.2315527e+02 </wgt>
<wgt id='2001'> +1.2435317e+02 </wgt>
<wgt id='2002'> +1.2374157e+02 </wgt>
<wgt id='2003'> +1.2375812e+02 </wgt>
<wgt id='2004'> +1.2431907e+02 </wgt>
<wgt id='2005'> +1.2357656e+02 </wgt>
<wgt id='2006'> +1.2441207e+02 </wgt>
<wgt id='2007'> +1.2365498e+02 </wgt>
<wgt id='2008'> +1.2442796e+02 </wgt>
<wgt id='2009'> +1.2366733e+02 </wgt>
<wgt id='2010'> +1.2439955e+02 </wgt>
<wgt id='2011'> +1.2451629e+02 </wgt>
<wgt id='2012'> +1.2357013e+02 </wgt>
<wgt id='2013'> +1.2280867e+02 </wgt>
<wgt id='2014'> +1.2503533e+02 </wgt>
<wgt id='2015'> +1.2434351e+02 </wgt>
<wgt id='2016'> +1.2367928e+02 </wgt>
<wgt id='2017'> +1.2295759e+02 </wgt>
<wgt id='2018'> +1.2479337e+02 </wgt>
<wgt id='2019'> +1.2404072e+02 </wgt>
<wgt id='2020'> +1.2503147e+02 </wgt>
<wgt id='2021'> +1.2281640e+02 </wgt>
<wgt id='2022'> +1.2515292e+02 </wgt>
<wgt id='2023'> +1.2321778e+02 </wgt>
<wgt id='2024'> +1.2476139e+02 </wgt>
<wgt id='2025'> +1.2347845e+02 </wgt>
<wgt id='2026'> +1.2391368e+02 </wgt>
<wgt id='2027'> +1.2424632e+02 </wgt>
<wgt id='2028'> +1.2319999e+02 </wgt>
<wgt id='2029'> +1.2494484e+02 </wgt>
<wgt id='2030'> +1.2404480e+02 </wgt>
<wgt id='2031'> +1.2494000e+02 </wgt>
<wgt id='2032'> +1.3110079e+02 </wgt>
<wgt id='2033'> +1.2620646e+02 </wgt>
<wgt id='2034'> +1.2639885e+02 </wgt>
<wgt id='2035'> +1.2606928e+02 </wgt>
<wgt id='2036'> +1.2599485e+02 </wgt>
<wgt id='2037'> +1.2647293e+02 </wgt>
<wgt id='2038'> +1.2598145e+02 </wgt>
<wgt id='2039'> +1.2648495e+02 </wgt>
<wgt id='2040'> +1.2563763e+02 </wgt>
<wgt id='2041'> +1.2681639e+02 </wgt>
<wgt id='2042'> +1.2690848e+02 </wgt>
<wgt id='2043'> +1.2555811e+02 </wgt>
<wgt id='2044'> +1.2661466e+02 </wgt>
<wgt id='2045'> +1.2585276e+02 </wgt>
<wgt id='2046'> +1.2580742e+02 </wgt>
<wgt id='2047'> +1.2665582e+02 </wgt>
<wgt id='2048'> +1.2594701e+02 </wgt>
<wgt id='2049'> +1.2643703e+02 </wgt>
<wgt id='2050'> +1.2654801e+02 </wgt>
<wgt id='2051'> +1.2591304e+02 </wgt>
<wgt id='2052'> +1.2621287e+02 </wgt>
<wgt id='2053'> +1.2626057e+02 </wgt>
<wgt id='2054'> +1.2524385e+02 </wgt>
<wgt id='2055'> +1.2722160e+02 </wgt>
<wgt id='2056'> +1.2620134e+02 </wgt>
<wgt id='2057'> +1.2620385e+02 </wgt>
<wgt id='2058'> +1.2556456e+02 </wgt>
<wgt id='2059'> +1.2661494e+02 </wgt>
<wgt id='2060'> +1.2525549e+02 </wgt>
<wgt id='2061'> +1.2679644e+02 </wgt>
<wgt id='2062'> +1.2598574e+02 </wgt>
<wgt id='2063'> +1.2734919e+02 </wgt>
<wgt id='2064'> +1.2409126e+02 </wgt>
<wgt id='2065'> +1.2757648e+02 </wgt>
<wgt id='2066'> +1.2481103e+02 </wgt>
<wgt id='2067'> +1.2611401e+02 </wgt>
<wgt id='2068'> +1.2428469e+02 </wgt>
<wgt id='2069'> +1.2585583e+02 </wgt>
<wgt id='2070'> +1.2650497e+02 </wgt>
<wgt id='2071'> +1.2348221e+02 </wgt>
<wgt id='2072'> +1.2648062e+02 </wgt>
<wgt id='2073'> +1.2372267e+02 </wgt>
<wgt id='2074'> +1.2853769e+02 </wgt>
<wgt id='2075'> +1.2633613e+02 </wgt>
<wgt id='2076'> +1.0956465e+02 </wgt>
<wgt id='2077'> +1.0953520e+02 </wgt>
<wgt id='2078'> +1.0950564e+02 </wgt>
<wgt id='2079'> +1.0947635e+02 </wgt>
<wgt id='2080'> +1.0944684e+02 </wgt>
<wgt id='2081'> +1.0941741e+02 </wgt>
<wgt id='2082'> +1.0938806e+02 </wgt>
<wgt id='2083'> +1.0935891e+02 </wgt>
<wgt id='2084'> +1.0932931e+02 </wgt>
<wgt id='2085'> +1.0930001e+02 </wgt>
<wgt id='2086'> +1.0927054e+02 </wgt>
<wgt id='2087'> +1.0924123e+02 </wgt>
<wgt id='2088'> +1.0921188e+02 </wgt>
<wgt id='2089'> +1.0918224e+02 </wgt>
<wgt id='2090'> +1.0915279e+02 </wgt>
<wgt id='2091'> +1.0912353e+02 </wgt>
<wgt id='2092'> +1.0909426e+02 </wgt>
<wgt id='2093'> +1.0906479e+02 </wgt>
<wgt id='2094'> +1.0903534e+02 </wgt>
<wgt id='2095'> +1.0900617e+02 </wgt>
<wgt id='2096'> +1.0897665e+02 </wgt>
<wgt id='2097'> +1.0894720e+02 </wgt>
<wgt id='2098'> +1.0891792e+02 </wgt>
<wgt id='2099'> +1.0888863e+02 </wgt>
<wgt id='2100'> +1.0885931e+02 </wgt>
<wgt id='2101'> +1.0882974e+02 </wgt>
<wgt id='2102'> +1.0880037e+02 </wgt>
<wgt id='2103'> +1.0877104e+02 </wgt>
<wgt id='2104'> +1.0874157e+02 </wgt>
<wgt id='2105'> +1.0871235e+02 </wgt>
<wgt id='2106'> +1.0868286e+02 </wgt>
<wgt id='2107'> +1.1151905e+02 </wgt>
<wgt id='2108'> +1.1162066e+02 </wgt>
<wgt id='2109'> +1.1116279e+02 </wgt>
<wgt id='2110'> +1.1178249e+02 </wgt>
<wgt id='2111'> +1.1211468e+02 </wgt>
<wgt id='2112'> +1.1215922e+02 </wgt>
<wgt id='2113'> +1.1196787e+02 </wgt>
<wgt id='2114'> +1.1171972e+02 </wgt>
<wgt id='2115'> +1.1154176e+02 </wgt>
<wgt id='2116'> +1.1161688e+02 </wgt>
<wgt id='2117'> +1.1145452e+02 </wgt>
<wgt id='2118'> +1.1240539e+02 </wgt>
<wgt id='2119'> +1.1157509e+02 </wgt>
<wgt id='2120'> +1.1195197e+02 </wgt>
<wgt id='2121'> +1.1110291e+02 </wgt>
<wgt id='2122'> +1.1155022e+02 </wgt>
<wgt id='2123'> +1.1144857e+02 </wgt>
<wgt id='2124'> +1.1138759e+02 </wgt>
<wgt id='2125'> +1.1212265e+02 </wgt>
<wgt id='2126'> +1.1026604e+02 </wgt>
<wgt id='2127'> +1.1161287e+02 </wgt>
<wgt id='2128'> +1.1191383e+02 </wgt>
<wgt id='2129'> +1.1062272e+02 </wgt>
<wgt id='2130'> +1.1215707e+02 </wgt>
<wgt id='2131'> +1.1236060e+02 </wgt>
<wgt id='2132'> +1.1136042e+02 </wgt>
<wgt id='2133'> +1.1130951e+02 </wgt>
<wgt id='2134'> +1.1174556e+02 </wgt>
<wgt id='2135'> +1.1138038e+02 </wgt>
<wgt id='2136'> +1.1129217e+02 </wgt>
<wgt id='2137'> +1.1138138e+02 </wgt>
<wgt id='2138'> +1.1201056e+02 </wgt>
<wgt id='2139'> +1.1167841e+02 </wgt>
<wgt id='2140'> +1.1179001e+02 </wgt>
<wgt id='2141'> +1.1181072e+02 </wgt>
<wgt id='2142'> +1.1110177e+02 </wgt>
<wgt id='2143'> +1.1231210e+02 </wgt>
<wgt id='2144'> +1.1145309e+02 </wgt>
<wgt id='2145'> +1.1145727e+02 </wgt>
<wgt id='2146'> +1.1151682e+02 </wgt>
<wgt id='2147'> +1.1107634e+02 </wgt>
<wgt id='2148'> +1.1139267e+02 </wgt>
<wgt id='2149'> +1.1171241e+02 </wgt>
<wgt id='2150'> +1.1128679e+02 </wgt>
<wgt id='2151'> +1.1163238e+02 </wgt>
<wgt id='2152'> +1.1131055e+02 </wgt>
<wgt id='2153'> +1.1120823e+02 </wgt>
<wgt id='2154'> +1.1107126e+02 </wgt>
<wgt id='2155'> +1.1154853e+02 </wgt>
<wgt id='2156'> +1.1125102e+02 </wgt>
<wgt id='2157'> +1.1143740e+02 </wgt>
<wgt id='2158'> +1.1148878e+02 </wgt>
<wgt id='2159'> +1.1164051e+02 </wgt>
<wgt id='2160'> +1.1135073e+02 </wgt>
<wgt id='2161'> +1.1134673e+02 </wgt>
<wgt id='2162'> +1.1145876e+02 </wgt>
<wgt id='2163'> +1.1167508e+02 </wgt>
<wgt id='2164'> +1.1144684e+02 </wgt>
<wgt id='2165'> +1.1132272e+02 </wgt>
<wgt id='2166'> +1.1154313e+02 </wgt>
<wgt id='2167'> +1.1149022e+02 </wgt>
<wgt id='2168'> +1.1154414e+02 </wgt>
<wgt id='2169'> +1.1165670e+02 </wgt>
<wgt id='2170'> +1.1139185e+02 </wgt>
<wgt id='2171'> +1.1142221e+02 </wgt>
<wgt id='2172'> +1.1159762e+02 </wgt>
<wgt id='2173'> +1.1157360e+02 </wgt>
<wgt id='2174'> +1.1155112e+02 </wgt>
<wgt id='2175'> +1.1140251e+02 </wgt>
<wgt id='2176'> +1.1163954e+02 </wgt>
<wgt id='2177'> +1.1161246e+02 </wgt>
<wgt id='2178'> +1.1152456e+02 </wgt>
<wgt id='2179'> +1.1161640e+02 </wgt>
<wgt id='2180'> +1.1146847e+02 </wgt>
<wgt id='2181'> +1.1148840e+02 </wgt>
<wgt id='2182'> +1.1147310e+02 </wgt>
<wgt id='2183'> +1.1150366e+02 </wgt>
<wgt id='2184'> +1.1158985e+02 </wgt>
<wgt id='2185'> +1.1153082e+02 </wgt>
<wgt id='2186'> +1.1158931e+02 </wgt>
<wgt id='2187'> +1.1152455e+02 </wgt>
<wgt id='2188'> +1.1151781e+02 </wgt>
<wgt id='2189'> +1.1150096e+02 </wgt>
<wgt id='2190'> +1.1149239e+02 </wgt>
<wgt id='2191'> +1.1149447e+02 </wgt>
<wgt id='2192'> +1.1146458e+02 </wgt>
<wgt id='2193'> +1.1150377e+02 </wgt>
<wgt id='2194'> +1.1145768e+02 </wgt>
<wgt id='2195'> +1.1150740e+02 </wgt>
<wgt id='2196'> +1.1146850e+02 </wgt>
<wgt id='2197'> +1.1156411e+02 </wgt>
<wgt id='2198'> +1.1150810e+02 </wgt>
<wgt id='2199'> +1.1153122e+02 </wgt>
<wgt id='2200'> +1.1149328e+02 </wgt>
<wgt id='2201'> +1.1146624e+02 </wgt>
<wgt id='2202'> +1.1156139e+02 </wgt>
<wgt id='2203'> +1.1151443e+02 </wgt>
<wgt id='2204'> +1.1150016e+02 </wgt>
<wgt id='2205'> +1.1149980e+02 </wgt>
<wgt id='2206'> +1.1151497e+02 </wgt>
<wgt id='2207'> +1.1152695e+02 </wgt>
<wgt id='2208'> +1.1151879e+02 </wgt>
<wgt id='2209'> +1.1151754e+02 </wgt>
<wgt id='2210'> +1.1151927e+02 </wgt>
<wgt id='2211'> +1.1151934e+02 </wgt>
<wgt id='2212'> +1.1151974e+02 </wgt>
<wgt id='2213'> +1.1151915e+02 </wgt>
<wgt id='2214'> +1.1151807e+02 </wgt>
<wgt id='2215'> +1.0943237e+02 </wgt>
<wgt id='2216'> +1.0443392e+02 </wgt>
<wgt id='2217'> +1.0779019e+02 </wgt>
<wgt id='2218'> +1.1485640e+02 </wgt>
<wgt id='2219'> +1.1354917e+02 </wgt>
<wgt id='2220'> +1.0782981e+02 </wgt>
<wgt id='2221'> +1.0908292e+02 </wgt>
<wgt id='2222'> +1.1030316e+02 </wgt>
<wgt id='2223'> +1.0718377e+02 </wgt>
<wgt id='2224'> +1.1012809e+02 </wgt>
<wgt id='2225'> +1.0779732e+02 </wgt>
<wgt id='2226'> +1.0732189e+02 </wgt>
<wgt id='2227'> +1.1124528e+02 </wgt>
<wgt id='2228'> +1.1228901e+02 </wgt>
<wgt id='2229'> +1.1021005e+02 </wgt>
<wgt id='2230'> +1.0834120e+02 </wgt>
<wgt id='2231'> +1.0669591e+02 </wgt>
<wgt id='2232'> +1.0760293e+02 </wgt>
<wgt id='2233'> +1.0511763e+02 </wgt>
<wgt id='2234'> +1.0735289e+02 </wgt>
<wgt id='2235'> +1.0807099e+02 </wgt>
<wgt id='2236'> +1.1285370e+02 </wgt>
<wgt id='2237'> +1.0872510e+02 </wgt>
<wgt id='2238'> +1.1280324e+02 </wgt>
<wgt id='2239'> +1.1297914e+02 </wgt>
<wgt id='2240'> +1.1024256e+02 </wgt>
<wgt id='2241'> +1.1114933e+02 </wgt>
<wgt id='2242'> +1.0687411e+02 </wgt>
<wgt id='2243'> +1.0966502e+02 </wgt>
<wgt id='2244'> +1.0898236e+02 </wgt>
<wgt id='2245'> +1.1005957e+02 </wgt>
<wgt id='2246'> +1.1139023e+02 </wgt>
<wgt id='2247'> +1.1079403e+02 </wgt>
<wgt id='2248'> +1.1003464e+02 </wgt>
<wgt id='2249'> +1.1091877e+02 </wgt>
<wgt id='2250'> +1.1296101e+02 </wgt>
<wgt id='2251'> +1.0959646e+02 </wgt>
<wgt id='2252'> +1.0711584e+02 </wgt>
<wgt id='2253'> +1.0482036e+02 </wgt>
<wgt id='2254'> +1.0826668e+02 </wgt>
<wgt id='2255'> +1.1048205e+02 </wgt>
<wgt id='2256'> +1.0977709e+02 </wgt>
<wgt id='2257'> +1.0881881e+02 </wgt>
<wgt id='2258'> +1.1095177e+02 </wgt>
<wgt id='2259'> +1.0834981e+02 </wgt>
<wgt id='2260'> +1.0948100e+02 </wgt>
<wgt id='2261'> +1.0842568e+02 </wgt>
<wgt id='2262'> +1.0564250e+02 </wgt>
<wgt id='2263'> +1.0839908e+02 </wgt>
<wgt id='2264'> +1.1195419e+02 </wgt>
<wgt id='2265'> +1.1216696e+02 </wgt>
<wgt id='2266'> +1.1199983e+02 </wgt>
<wgt id='2267'> +1.1117823e+02 </wgt>
<wgt id='2268'> +1.0991387e+02 </wgt>
<wgt id='2269'> +1.0977922e+02 </wgt>
<wgt id='2270'> +1.1125659e+02 </wgt>
<wgt id='2271'> +1.0683347e+02 </wgt>
<wgt id='2272'> +1.1272705e+02 </wgt>
<wgt id='2273'> +1.1201646e+02 </wgt>
<wgt id='2274'> +1.0729023e+02 </wgt>
<wgt id='2275'> +1.1018568e+02 </wgt>
<wgt id='2276'> +1.1007577e+02 </wgt>
<wgt id='2277'> +1.0878618e+02 </wgt>
<wgt id='2278'> +1.0992917e+02 </wgt>
<wgt id='2279'> +1.0138330e+02 </wgt>
<wgt id='2280'> +1.1151901e+02 </wgt>
<wgt id='2281'> +1.0997837e+02 </wgt>
<wgt id='2282'> +1.1161369e+02 </wgt>
<wgt id='2283'> +1.0978164e+02 </wgt>
<wgt id='2284'> +1.0852504e+02 </wgt>
<wgt id='2285'> +1.0787431e+02 </wgt>
<wgt id='2286'> +1.1090840e+02 </wgt>
<wgt id='2287'> +1.0895660e+02 </wgt>
<wgt id='2288'> +1.0681681e+02 </wgt>
<wgt id='2289'> +1.1442252e+02 </wgt>
<wgt id='2290'> +1.0830036e+02 </wgt>
<wgt id='2291'> +1.1144093e+02 </wgt>
<wgt id='2292'> +1.0941589e+02 </wgt>
<wgt id='2293'> +1.0888558e+02 </wgt>
<wgt id='2294'> +1.0882580e+02 </wgt>
<wgt id='2295'> +1.1080400e+02 </wgt>
<wgt id='2296'> +1.1060768e+02 </wgt>
<wgt id='2297'> +1.1253715e+02 </wgt>
<wgt id='2298'> +1.0588074e+02 </wgt>
<wgt id='2299'> +1.1039465e+02 </wgt>
<wgt id='2300'> +1.0955104e+02 </wgt>
<wgt id='2301'> +1.0728219e+02 </wgt>
<wgt id='2302'> +1.1030542e+02 </wgt>
<wgt id='2303'> +1.1200819e+02 </wgt>
<wgt id='2304'> +1.0653863e+02 </wgt>
<wgt id='2305'> +1.1029430e+02 </wgt>
<wgt id='2306'> +1.0913753e+02 </wgt>
<wgt id='2307'> +1.1049460e+02 </wgt>
<wgt id='2308'> +1.0796153e+02 </wgt>
<wgt id='2309'> +1.0654252e+02 </wgt>
<wgt id='2310'> +1.0521705e+02 </wgt>
<wgt id='2311'> +1.0883157e+02 </wgt>
<wgt id='2312'> +1.0878144e+02 </wgt>
<wgt id='2313'> +1.1267681e+02 </wgt>
<wgt id='2314'> +1.1038944e+02 </wgt>
<wgt id='2315'> +1.0480039e+02 </wgt>
<wgt id='2316'> +1.0654459e+02 </wgt>
<wgt id='2317'> +1.1246355e+02 </wgt>
<wgt id='2318'> +1.1168719e+02 </wgt>
<wgt id='2319'> +1.1588332e+02 </wgt>
<wgt id='2320'> +1.5340116e+02 </wgt>
<wgt id='2321'> +1.0327110e+02 </wgt>
<wgt id='2322'> +1.4619843e+02 </wgt>
</rwgt>
</event>
<event>
13      1 +1.1579678e+02 1.95074300e+02 7.81859000e-03 1.05868500e-01
       21 -1    0    0  501  502 +0.0000000000e+00 +0.0000000000e+00 +2.8894325696e+02 2.8894325696e+02 0.0000000000e+00 0.0000e+00 -1.0000e+00
       21 -1    0    0  504  503 +0.0000000000e+00 +0.0000000000e+00 -1.9289577593e+02 1.9289577593e+02 0.0000000000e+00 0.0000e+00 -1.0000e+00
        6  2    1    2  501    0 +1.0644074223e+02 +4.9215158343e+01 +8.4853257224e+01 2.2845531116e+02 1.7674838194e+02 0.0000e+00 0.0000e+00
        5  1    3    3  501    0 +3.2373450495e+01 -5.0992503608e+01 +4.4185871450e+01 7.4837603896e+01 0.0000000000e+00 0.0000e+00 -1.0000e+00
       24  2    3    3    0    0 +7.4067291732e+01 +1.0020766195e+02 +4.0667385775e+01 1.5361770726e+02 8.0106332458e+01 0.0000e+00 0.0000e+00
      -13  1    5    5    0    0 +2.3747173988e+01 -1.0882907561e+01 +5.5317278191e+00 2.6701422473e+01 0.0000000000e+00 0.0000e+00 1.0000e+00
       14  1    5    5    0    0 +5.0320117744e+01 +1.1109056951e+02 +3.5135657956e+01 1.2691628479e+02 0.0000000000e+00 0.0000e+00 -1.0000e+00
       -6  2    1    2    0  503 -4.3477571664e+01 -6.0642652397e+01 -6.5276435884e+00 1.8698332225e+02 1.7132519412e+02 0.0000e+00 0.0000e+00
       -5  1    8    8    0  503 -2.6072059051e+01 -2.5275865315e+01 -7.2012155910e+01 8.0649688340e+01 0.0000000000e+00 0.0000e+00 1.0000e+00
      -24  2    8    8    0    0 -1.7405512614e+01 -3.5366787082e+01 +6.5484512321e+01 1.0633363391e+02 7.3924683622e+01 0.0000e+00 0.0000e+00
       11  1   10   10    0    0 +1.8656130623e+01 +1.0397738904e+01 +4.1901889249e+00 2.1765152593e+01 0.0000000000e+00 0.0000e+00 -1.0000e+00
      -12  1   10   10    0    0 -3.6061643237e+01 -4.5764525986e+01 +6.1294323396e+01 8.4568481317e+01 0.0000000000e+00 0.0000e+00 1.0000e+00
       21  1    1    2  504  502 -6.2963170563e+01 +1.1427494053e+01 +1.7721867394e+01 6.6400399484e+01 0.0000000000e+00 0.0000e+00 -1.0000e+00
<scales pt_clust_1="13000.0" pt_clust_2="13000.0" pt_clust_3="13000.0" pt_clust_4="13000.0" pt_clust_5="13000.0" pt_clust_6="13000.0" pt_clust_7="63.79864"></scales>
<mgrwt>
<rscale>  2 0.19507432e+03</rscale>
<asrwt>  1 0.63798636e+02</asrwt>
<pdfrwt beam="1">  2       21       21 0.44452809e-01 0.32411888e-01 0.63798636e+02 0.19507432e+03</pdfrwt>
<pdfrwt beam="2">  1       21 0.29676273e-01 0.63798636e+02</pdfrwt>
<totfact> 0.10040400e+02</totfact>
</mgrwt>
<clustering>
<clus scale="   63.799">  1  5  2 -1</clus>
<clus scale="  195.074">  1  3  2 -1</clus>
<clus scale="   63.799">  1  3  2 -1</clus>
</clustering>
<rwgt>
<wgt id='reference_point'> +1.1579678e+02 </wgt>
<wgt id='eftrwgt0_ctg_-0.754_cqq83_2.978_cqq81_11.175_cqu8_-0.722_cqd8_-22.551_ctq8_11.076_ctu8_-15.131_ctd8_20.128_cqq13_0.321_cqq11_-6.675_cqu1_-3.516_cqd1_6.151_ctq1_5.402_ctu1_-8.742_ctd1_5.367'> +7.8165743e+01 </wgt>
<wgt id='eftrwgt1_ctg_-1.195_cqq83_-15.761_cqq81_-4.235_cqu8_-15.499_cqd8_-10.228_ctq8_-0.966_ctu8_-17.272_ctd8_-16.58_cqq13_-4.893_cqq11_4.278_cqu1_-0.839_cqd1_-4.333_ctq1_2.613_ctu1_-1.417_ctd1_-2.816'> +6.8255442e+01 </wgt>
<wgt id='eftrwgt2_ctg_-1.383_cqq83_5.883_cqq81_-5.515_cqu8_2.394_cqd8_-9.03_ctq8_-0.054_ctu8_-11.517_ctd8_-10.825_cqq13_-0.011_cqq11_4.192_cqu1_6.747_cqd1_8.549_ctq1_7.513_ctu1_-7.841_ctd1_7.605'> +6.4243354e+01 </wgt>
<wgt id='eftrwgt3_ctg_0.83_cqq83_7.564_cqq81_-4.758_cqu8_11.03_cqd8_2.018_ctq8_13.609_ctu8_6.693_ctd8_12.801_cqq13_1.059_cqq11_-4.128_cqu1_0.962_cqd1_4.274_ctq1_8.055_ctu1_-10.409_ctd1_-1.438'> +1.1953173e+02 </wgt>
<wgt id='eftrwgt4_ctg_0.635_cqq83_-11.713_cqq81_0.383_cqu8_10.984_cqd8_-20.924_ctq8_-2.091_ctu8_5.555_ctd8_1.514_cqq13_3.429_cqq11_-0.162_cqu1_-10.649_cqd1_5.475_ctq1_5.872_ctu1_-1.687_ctd1_-8.071'> +1.1395211e+02 </wgt>
<wgt id='eftrwgt5_ctg_0.29_cqq83_4.054_cqq81_-1.527_cqu8_-4.305_cqd8_-20.381_ctq8_12.02_ctu8_-17.198_ctd8_4.416_cqq13_-0.765_cqq11_-1.818_cqu1_-0.276_cqd1_12.045_ctq1_-6.626_ctu1_4.803_ctd1_5.994'> +1.0441559e+02 </wgt>
<wgt id='eftrwgt6_ctg_0.363_cqq83_-5.38_cqq81_10.485_cqu8_-11.932_cqd8_-4.948_ctq8_9.185_ctu8_-12.064_ctd8_17.315_cqq13_-0.222_cqq11_-6.441_cqu1_-7.804_cqd1_-9.036_ctq1_-7.458_ctu1_9.293_ctd1_3.977'> +1.0639776e+02 </wgt>
<wgt id='eftrwgt7_ctg_-1.197_cqq83_-4.451_cqq81_7.597_cqu8_-7.443_cqd8_22.122_ctq8_3.031_ctu8_-12.259_ctd8_16.154_cqq13_-6.717_cqq11_-0.945_cqu1_5.096_cqd1_2.249_ctq1_-0.68_ctu1_-7.751_ctd1_8.44'> +6.8212092e+01 </wgt>
<wgt id='eftrwgt8_ctg_0.542_cqq83_-14.102_cqq81_-2.643_cqu8_18.837_cqd8_-13.941_ctq8_-13.421_ctu8_13.125_ctd8_-6.068_cqq13_-0.748_cqq11_-1.138_cqu1_3.707_cqd1_-4.4_ctq1_2.065_ctu1_5.13_ctd1_4.025'> +1.1133925e+02 </wgt>
<wgt id='eftrwgt9_ctg_1.074_cqq83_4.736_cqq81_-13.002_cqu8_-15.389_cqd8_0.91_ctq8_-9.328_ctu8_7.624_ctd8_-22.019_cqq13_3.75_cqq11_-2.977_cqu1_-3.02_cqd1_-13.923_ctq1_-7.186_ctu1_2.633_ctd1_-7.896'> +1.2670608e+02 </wgt>
<wgt id='eftrwgt10_ctg_1.238_cqq83_-17.533_cqq81_12.633_cqu8_3.116_cqd8_9.117_ctq8_-4.456_ctu8_0.149_ctd8_15.76_cqq13_-4.569_cqq11_4.155_cqu1_6.051_cqd1_-8.105_ctq1_0.824_ctu1_0.75_ctd1_6.587'> +1.3164854e+02 </wgt>
<wgt id='eftrwgt11_ctg_-1.233_cqq83_-17.319_cqq81_-5.312_cqu8_16.53_cqd8_-9.607_ctq8_-3.402_ctu8_-16.447_ctd8_-22.15_cqq13_-0.265_cqq11_4.394_cqu1_-0.387_cqd1_0.421_ctq1_2.017_ctu1_-6.772_ctd1_6.873'> +6.7434236e+01 </wgt>
<wgt id='eftrwgt12_ctg_0.408_cqq83_-9.97_cqq81_3.05_cqu8_8.428_cqd8_-10.45_ctq8_-4.549_ctu8_7.41_ctd8_-18.252_cqq13_4.276_cqq11_0.305_cqu1_-4.657_cqd1_-5.86_ctq1_4.293_ctu1_-6.686_ctd1_-6.47'> +1.0762918e+02 </wgt>
<wgt id='eftrwgt13_ctg_1.091_cqq83_16.651_cqq81_9.034_cqu8_-17.068_cqd8_-16.41_ctq8_5.505_ctu8_-6.023_ctd8_-19.606_cqq13_-1.427_cqq11_2.94_cqu1_-7.645_cqd1_-9.373_ctq1_-6.218_ctu1_1.987_ctd1_-10.94'> +1.2721391e+02 </wgt>
<wgt id='eftrwgt14_ctg_-0.901_cqq83_-3.298_cqq81_-0.028_cqu8_-17.181_cqd8_-17.858_ctq8_-13.488_ctu8_-10.256_ctd8_-0.921_cqq13_4.443_cqq11_-0.633_cqu1_-9.228_cqd1_11.328_ctq1_-0.213_ctu1_-0.551_ctd1_-5.789'> +7.4784569e+01 </wgt>
<wgt id='eftrwgt15_ctg_1.026_cqq83_10.852_cqq81_-7.218_cqu8_6.384_cqd8_16.276_ctq8_-4.737_ctu8_-13.404_ctd8_1.733_cqq13_7.315_cqq11_-8.101_cqu1_-2.738_cqd1_7.548_ctq1_8.479_ctu1_-6.738_ctd1_-5.539'> +1.2527781e+02 </wgt>
<wgt id='eftrwgt16_ctg_-0.132_cqq83_-16.656_cqq81_4.305_cqu8_-12.062_cqd8_4.31_ctq8_13.615_ctu8_3.27_ctd8_11.552_cqq13_-1.799_cqq11_7.423_cqu1_6.843_cqd1_13.535_ctq1_0.146_ctu1_7.054_ctd1_9.686'> +9.3332871e+01 </wgt>
<wgt id='eftrwgt17_ctg_0.712_cqq83_-6.61_cqq81_-4.301_cqu8_-1.403_cqd8_6.303_ctq8_-4.86_ctu8_3.128_ctd8_-14.844_cqq13_0.039_cqq11_-4.957_cqu1_2.629_cqd1_-12.532_ctq1_4.939_ctu1_-4.209_ctd1_-3.655'> +1.1613900e+02 </wgt>
<wgt id='eftrwgt18_ctg_-1.35_cqq83_-11.68_cqq81_4.439_cqu8_13.372_cqd8_-0.653_ctq8_5.688_ctu8_0.67_ctd8_-7.709_cqq13_-5.475_cqq11_-5.399_cqu1_3.601_cqd1_-8.439_ctq1_1.117_ctu1_-0.006_ctd1_13.614'> +6.4938403e+01 </wgt>
<wgt id='eftrwgt19_ctg_0.098_cqq83_15.517_cqq81_-5.712_cqu8_-4.013_cqd8_-7.836_ctq8_-1.046_ctu8_-12.063_ctd8_6.039_cqq13_-3.557_cqq11_7.181_cqu1_6.996_cqd1_-3.116_ctq1_1.869_ctu1_1.545_ctd1_-10.959'> +9.9293785e+01 </wgt>
<wgt id='eftrwgt20_ctg_0.401_cqq83_8.943_cqq81_9.36_cqu8_14.22_cqd8_-14.886_ctq8_8.313_ctu8_5.302_ctd8_-10.568_cqq13_-2.406_cqq11_5.185_cqu1_-6.752_cqd1_-3.344_ctq1_-0.322_ctu1_-1.749_ctd1_2.241'> +1.0743714e+02 </wgt>
<wgt id='eftrwgt21_ctg_0.263_cqq83_-7.003_cqq81_9.705_cqu8_13.582_cqd8_19.058_ctq8_12.946_ctu8_6.424_ctd8_17.248_cqq13_-4.887_cqq11_-3.405_cqu1_10.633_cqd1_-6.948_ctq1_5.694_ctu1_-6.922_ctd1_1.277'> +1.0368733e+02 </wgt>
<wgt id='eftrwgt22_ctg_0.627_cqq83_-17.281_cqq81_-4.961_cqu8_16.938_cqd8_22.735_ctq8_-1.208_ctu8_-3.511_ctd8_-5.122_cqq13_5.387_cqq11_-4.565_cqu1_7.804_cqd1_11.098_ctq1_-1.5_ctu1_8.736_ctd1_13.194'> +1.1372612e+02 </wgt>
<wgt id='eftrwgt23_ctg_-0.648_cqq83_15.811_cqq81_12.009_cqu8_-18.949_cqd8_0.783_ctq8_-3.059_ctu8_-17.702_ctd8_-6.711_cqq13_-4.356_cqq11_3.652_cqu1_-8.368_cqd1_-4.016_ctq1_2.411_ctu1_3.109_ctd1_4.001'> +8.0652107e+01 </wgt>
<wgt id='eftrwgt24_ctg_0.279_cqq83_3.419_cqq81_-12.348_cqu8_-3.685_cqd8_-7.428_ctq8_10.986_ctu8_-5.15_ctd8_-17.732_cqq13_-2.497_cqq11_-5.647_cqu1_0.002_cqd1_-4.035_ctq1_-3.93_ctu1_-1.854_ctd1_8.352'> +1.0411858e+02 </wgt>
<wgt id='eftrwgt25_ctg_1.257_cqq83_8.7_cqq81_-13.787_cqu8_1.396_cqd8_-4.553_ctq8_0.437_ctu8_6.957_ctd8_15.293_cqq13_7.476_cqq11_-5.974_cqu1_-3.383_cqd1_-2.371_ctq1_-0.219_ctu1_2.622_ctd1_-7.856'> +1.3222740e+02 </wgt>
<wgt id='eftrwgt26_ctg_-1.323_cqq83_-5.612_cqq81_0.616_cqu8_6.632_cqd8_-3.336_ctq8_13.782_ctu8_-3.939_ctd8_-15.742_cqq13_2.848_cqq11_5.501_cqu1_-1.125_cqd1_-13.284_ctq1_-0.806_ctu1_-0.98_ctd1_-3.316'> +6.5509993e+01 </wgt>
<wgt id='eftrwgt27_ctg_-1.062_cqq83_-5.785_cqq81_-3.069_cqu8_7.318_cqd8_-18.47_ctq8_-5.182_ctu8_-7.369_ctd8_-7.449_cqq13_-0.119_cqq11_-7.366_cqu1_-4.956_cqd1_-13.113_ctq1_-1.612_ctu1_-8.864_ctd1_-9.975'> +7.1170578e+01 </wgt>
<wgt id='eftrwgt28_ctg_0.241_cqq83_-10.317_cqq81_-13.275_cqu8_-8.248_cqd8_-17.794_ctq8_-12.823_ctu8_-16.47_ctd8_-4.449_cqq13_-2.362_cqq11_4.11_cqu1_-10.775_cqd1_-8.582_ctq1_2.037_ctu1_-10.4_ctd1_1.059'> +1.0309587e+02 </wgt>
<wgt id='eftrwgt29_ctg_0.186_cqq83_-14.559_cqq81_-7.088_cqu8_-18.724_cqd8_-0.974_ctq8_-0.831_ctu8_6.546_ctd8_-21.38_cqq13_-1.637_cqq11_2.85_cqu1_2.42_cqd1_-0.935_ctq1_-8.07_ctu1_5.575_ctd1_0.549'> +1.0162482e+02 </wgt>
<wgt id='eftrwgt30_ctg_-1.395_cqq83_-10.203_cqq81_12.938_cqu8_3.137_cqd8_11.131_ctq8_9.079_ctu8_-0.374_ctd8_-23.313_cqq13_-4.383_cqq11_-1.0_cqu1_1.541_cqd1_2.342_ctq1_-4.241_ctu1_-4.162_ctd1_-12.306'> +6.3991581e+01 </wgt>
<wgt id='eftrwgt31_ctg_0.115_cqq83_-15.901_cqq81_-6.358_cqu8_-16.907_cqd8_-5.747_ctq8_2.066_ctu8_-12.966_ctd8_-16.328_cqq13_-3.096_cqq11_2.684_cqu1_-8.352_cqd1_-6.211_ctq1_2.511_ctu1_5.799_ctd1_9.554'> +9.9741928e+01 </wgt>
<wgt id='eftrwgt32_ctg_1.117_cqq83_2.704_cqq81_7.787_cqu8_-16.533_cqd8_8.904_ctq8_10.253_ctu8_2.612_ctd8_4.645_cqq13_-5.493_cqq11_2.812_cqu1_-7.509_cqd1_-3.19_ctq1_-6.22_ctu1_5.276_ctd1_5.86'> +1.2799260e+02 </wgt>
<wgt id='eftrwgt33_ctg_0.209_cqq83_-8.091_cqq81_-11.607_cqu8_-16.123_cqd8_-8.064_ctq8_-3.29_ctu8_-14.767_ctd8_-13.018_cqq13_-5.739_cqq11_0.542_cqu1_-1.411_cqd1_-8.179_ctq1_-5.997_ctu1_-7.343_ctd1_12.169'> +1.0223866e+02 </wgt>
<wgt id='eftrwgt34_ctg_-1.122_cqq83_6.387_cqq81_-1.268_cqu8_-5.867_cqd8_-9.336_ctq8_-2.052_ctu8_-17.13_ctd8_21.742_cqq13_0.581_cqq11_5.886_cqu1_-10.133_cqd1_-11.29_ctq1_-6.71_ctu1_3.942_ctd1_9.713'> +6.9847600e+01 </wgt>
<wgt id='eftrwgt35_ctg_-1.321_cqq83_10.781_cqq81_5.96_cqu8_-16.967_cqd8_5.511_ctq8_-3.29_ctu8_-3.816_ctd8_-14.387_cqq13_-5.938_cqq11_-2.941_cqu1_-5.98_cqd1_11.576_ctq1_0.788_ctu1_10.277_ctd1_-4.905'> +6.5552437e+01 </wgt>
<wgt id='eftrwgt36_ctg_-0.68_cqq83_-4.656_cqq81_2.64_cqu8_-5.091_cqd8_-6.267_ctq8_12.357_ctu8_4.141_ctd8_8.527_cqq13_4.229_cqq11_-0.357_cqu1_6.729_cqd1_-0.812_ctq1_5.304_ctu1_-6.109_ctd1_-13.243'> +7.9897247e+01 </wgt>
<wgt id='eftrwgt37_ctg_-1.287_cqq83_-9.3_cqq81_-1.066_cqu8_-15.272_cqd8_5.656_ctq8_0.824_ctu8_-7.129_ctd8_-5.439_cqq13_-7.864_cqq11_0.302_cqu1_3.094_cqd1_1.84_ctq1_-4.372_ctu1_-7.563_ctd1_2.217'> +6.6276193e+01 </wgt>
<wgt id='eftrwgt38_ctg_0.789_cqq83_2.618_cqq81_-0.896_cqu8_4.006_cqd8_12.013_ctq8_-9.44_ctu8_-16.781_ctd8_-6.655_cqq13_-5.548_cqq11_2.529_cqu1_7.52_cqd1_-4.256_ctq1_5.745_ctu1_0.798_ctd1_7.829'> +1.1834722e+02 </wgt>
<wgt id='eftrwgt39_ctg_0.721_cqq83_1.632_cqq81_7.373_cqu8_-0.631_cqd8_4.104_ctq8_12.802_ctu8_-10.868_ctd8_-5.968_cqq13_-1.832_cqq11_-3.336_cqu1_-4.17_cqd1_-6.056_ctq1_-3.676_ctu1_5.679_ctd1_-9.027'> +1.1639600e+02 </wgt>
<wgt id='eftrwgt40_ctg_-0.362_cqq83_-1.589_cqq81_6.197_cqu8_-18.27_cqd8_7.832_ctq8_-9.399_ctu8_-6.455_ctd8_10.547_cqq13_-4.378_cqq11_5.514_cqu1_-8.215_cqd1_4.889_ctq1_5.265_ctu1_10.009_ctd1_3.422'> +8.7562269e+01 </wgt>
<wgt id='eftrwgt41_ctg_0.658_cqq83_-10.403_cqq81_3.211_cqu8_-2.337_cqd8_17.509_ctq8_6.996_ctu8_-1.761_ctd8_-2.923_cqq13_7.515_cqq11_-0.097_cqu1_0.074_cqd1_12.92_ctq1_-6.01_ctu1_-8.626_ctd1_2.326'> +1.1460310e+02 </wgt>
<wgt id='eftrwgt42_ctg_0.239_cqq83_-0.972_cqq81_-1.122_cqu8_-17.342_cqd8_-7.199_ctq8_-12.68_ctu8_1.247_ctd8_17.533_cqq13_-6.465_cqq11_-5.436_cqu1_9.489_cqd1_-0.985_ctq1_8.129_ctu1_-5.418_ctd1_5.104'> +1.0304219e+02 </wgt>
<wgt id='eftrwgt43_ctg_-0.649_cqq83_12.017_cqq81_-8.81_cqu8_-11.947_cqd8_-0.617_ctq8_-8.389_ctu8_-11.126_ctd8_-23.747_cqq13_-2.837_cqq11_5.496_cqu1_4.701_cqd1_4.955_ctq1_2.49_ctu1_2.683_ctd1_-7.631'> +8.0628462e+01 </wgt>
<wgt id='eftrwgt44_ctg_0.171_cqq83_12.009_cqq81_1.908_cqu8_4.651_cqd8_-17.53_ctq8_4.385_ctu8_9.354_ctd8_6.605_cqq13_0.349_cqq11_-3.295_cqu1_-5.85_cqd1_-13.524_ctq1_0.629_ctu1_-6.984_ctd1_13.334'> +1.0122552e+02 </wgt>
<wgt id='eftrwgt45_ctg_1.117_cqq83_-1.134_cqq81_0.846_cqu8_-17.819_cqd8_7.834_ctq8_-1.016_ctu8_17.048_ctd8_-16.169_cqq13_3.138_cqq11_-2.054_cqu1_-10.535_cqd1_-6.766_ctq1_2.47_ctu1_6.02_ctd1_11.267'> +1.2799260e+02 </wgt>
<wgt id='eftrwgt46_ctg_0.852_cqq83_-5.375_cqq81_-1.252_cqu8_-6.421_cqd8_17.384_ctq8_4.252_ctu8_6.891_ctd8_10.51_cqq13_-4.608_cqq11_7.589_cqu1_-6.678_cqd1_11.188_ctq1_-3.189_ctu1_-10.063_ctd1_0.955'> +1.2016980e+02 </wgt>
<wgt id='eftrwgt47_ctg_0.672_cqq83_10.633_cqq81_-10.436_cqu8_3.141_cqd8_5.015_ctq8_-11.403_ctu8_-4.418_ctd8_-1.92_cqq13_0.491_cqq11_-8.212_cqu1_-0.701_cqd1_-0.931_ctq1_5.075_ctu1_5.776_ctd1_-9.187'> +1.1500029e+02 </wgt>
<wgt id='eftrwgt48_ctg_0.097_cqq83_-13.235_cqq81_3.083_cqu8_-6.992_cqd8_-21.927_ctq8_-1.972_ctu8_12.828_ctd8_-23.378_cqq13_1.548_cqq11_-7.292_cqu1_-7.809_cqd1_-3.663_ctq1_-0.091_ctu1_3.906_ctd1_0.689'> +9.9267456e+01 </wgt>
<wgt id='eftrwgt49_ctg_1.029_cqq83_-0.471_cqq81_-7.658_cqu8_-14.403_cqd8_16.435_ctq8_-10.202_ctu8_-12.269_ctd8_-13.394_cqq13_-1.09_cqq11_4.914_cqu1_-4.324_cqd1_0.827_ctq1_-4.544_ctu1_-0.962_ctd1_9.864'> +1.2536683e+02 </wgt>
<wgt id='eftrwgt50_ctg_-0.665_cqq83_-14.242_cqq81_-8.115_cqu8_4.63_cqd8_10.452_ctq8_-13.832_ctu8_-13.909_ctd8_-10.071_cqq13_-2.706_cqq11_1.201_cqu1_0.148_cqd1_-0.781_ctq1_-6.102_ctu1_-6.349_ctd1_6.964'> +8.0250630e+01 </wgt>
<wgt id='eftrwgt51_ctg_-0.787_cqq83_-15.261_cqq81_8.809_cqu8_-2.155_cqd8_-17.025_ctq8_-6.971_ctu8_10.751_ctd8_-10.297_cqq13_-0.617_cqq11_7.049_cqu1_-7.986_cqd1_-2.061_ctq1_0.449_ctu1_6.857_ctd1_-13.813'> +7.7399936e+01 </wgt>
<wgt id='eftrwgt52_ctg_0.862_cqq83_17.48_cqq81_4.698_cqu8_8.08_cqd8_9.692_ctq8_3.485_ctu8_11.755_ctd8_-3.559_cqq13_6.645_cqq11_2.713_cqu1_-8.115_cqd1_8.608_ctq1_-6.273_ctu1_7.111_ctd1_5.866'> +1.2046042e+02 </wgt>
<wgt id='eftrwgt53_ctg_-0.903_cqq83_3.892_cqq81_-1.362_cqu8_-12.339_cqd8_-12.919_ctq8_2.258_ctu8_8.165_ctd8_16.95_cqq13_-4.352_cqq11_1.546_cqu1_7.695_cqd1_11.734_ctq1_2.3_ctu1_9.781_ctd1_1.838'> +7.4739103e+01 </wgt>
<wgt id='eftrwgt54_ctg_-0.522_cqq83_-0.949_cqq81_-0.037_cqu8_14.405_cqd8_-4.088_ctq8_-5.643_ctu8_8.684_ctd8_-21.06_cqq13_-6.966_cqq11_-5.093_cqu1_-4.897_cqd1_2.455_ctq1_-3.435_ctu1_3.57_ctd1_-7.932'> +8.3660181e+01 </wgt>
<wgt id='eftrwgt55_ctg_-0.222_cqq83_1.213_cqq81_10.848_cqu8_-14.188_cqd8_-19.129_ctq8_4.966_ctu8_6.833_ctd8_-10.208_cqq13_6.393_cqq11_2.922_cqu1_9.268_cqd1_9.372_ctq1_3.58_ctu1_5.027_ctd1_13.963'> +9.1052144e+01 </wgt>
<wgt id='eftrwgt56_ctg_-0.064_cqq83_-13.896_cqq81_-9.146_cqu8_-12.936_cqd8_6.184_ctq8_-9.142_ctu8_7.671_ctd8_-23.063_cqq13_-5.638_cqq11_0.314_cqu1_3.549_cqd1_13.313_ctq1_7.463_ctu1_-2.827_ctd1_4.274'> +9.5075413e+01 </wgt>
<wgt id='eftrwgt57_ctg_0.55_cqq83_-0.366_cqq81_13.131_cqu8_-11.082_cqd8_-6.326_ctq8_-1.457_ctu8_-10.801_ctd8_-1.042_cqq13_-6.705_cqq11_-3.081_cqu1_2.128_cqd1_13.722_ctq1_-3.878_ctu1_8.438_ctd1_-10.644'> +1.1156278e+02 </wgt>
<wgt id='eftrwgt58_ctg_-0.739_cqq83_-1.927_cqq81_-4.498_cqu8_-7.655_cqd8_-12.724_ctq8_7.311_ctu8_0.6_ctd8_-24.282_cqq13_7.046_cqq11_-1.157_cqu1_2.74_cqd1_1.196_ctq1_0.456_ctu1_10.57_ctd1_6.47'> +7.8515131e+01 </wgt>
<wgt id='eftrwgt59_ctg_-0.809_cqq83_6.461_cqq81_5.164_cqu8_7.348_cqd8_-10.049_ctq8_-9.039_ctu8_11.156_ctd8_17.765_cqq13_2.406_cqq11_-3.454_cqu1_-8.251_cqd1_3.987_ctq1_-2.608_ctu1_-5.906_ctd1_-13.122'> +7.6891576e+01 </wgt>
<wgt id='eftrwgt60_ctg_0.321_cqq83_5.49_cqq81_9.481_cqu8_6.2_cqd8_6.877_ctq8_-2.766_ctu8_2.591_ctd8_5.007_cqq13_4.948_cqq11_-5.846_cqu1_1.836_cqd1_2.37_ctq1_3.758_ctu1_-2.994_ctd1_-9.755'> +1.0525500e+02 </wgt>
<wgt id='eftrwgt61_ctg_0.309_cqq83_13.504_cqq81_0.142_cqu8_15.303_cqd8_-11.281_ctq8_-13.865_ctu8_10.736_ctd8_-18.349_cqq13_0.658_cqq11_-2.407_cqu1_-8.659_cqd1_5.691_ctq1_0.834_ctu1_-7.918_ctd1_8.27'> +1.0492966e+02 </wgt>
<wgt id='eftrwgt62_ctg_-0.755_cqq83_1.09_cqq81_-2.059_cqu8_14.895_cqd8_0.941_ctq8_-0.117_ctu8_-3.607_ctd8_-7.303_cqq13_2.029_cqq11_-6.951_cqu1_-7.372_cqd1_-8.246_ctq1_-0.626_ctu1_-0.403_ctd1_-6.554'> +7.8142479e+01 </wgt>
<wgt id='eftrwgt63_ctg_-1.189_cqq83_3.274_cqq81_5.97_cqu8_-8.688_cqd8_14.017_ctq8_2.273_ctu8_14.433_ctd8_-19.069_cqq13_-4.403_cqq11_3.367_cqu1_-4.681_cqd1_10.796_ctq1_-4.846_ctu1_1.054_ctd1_-13.006'> +6.8385582e+01 </wgt>
<wgt id='eftrwgt64_ctg_0.949_cqq83_12.237_cqq81_-2.266_cqu8_-10.878_cqd8_-7.642_ctq8_-6.632_ctu8_-5.91_ctd8_22.286_cqq13_-6.42_cqq11_-0.839_cqu1_-9.914_cqd1_11.165_ctq1_5.728_ctu1_-2.834_ctd1_-11.273'> +1.2300393e+02 </wgt>
<wgt id='eftrwgt65_ctg_-1.077_cqq83_6.554_cqq81_-5.771_cqu8_-11.958_cqd8_-5.175_ctq8_6.893_ctu8_-15.271_ctd8_-11.605_cqq13_-2.625_cqq11_5.619_cqu1_-3.062_cqd1_8.844_ctq1_8.759_ctu1_7.743_ctd1_-9.404'> +7.0838619e+01 </wgt>
<wgt id='eftrwgt66_ctg_0.739_cqq83_-0.73_cqq81_-3.942_cqu8_0.197_cqd8_-20.568_ctq8_-3.855_ctu8_3.62_ctd8_-1.663_cqq13_1.279_cqq11_-5.868_cqu1_-1.596_cqd1_4.61_ctq1_-0.985_ctu1_5.278_ctd1_1.935'> +1.1691088e+02 </wgt>
<wgt id='eftrwgt67_ctg_-1.144_cqq83_-9.411_cqq81_11.632_cqu8_13.794_cqd8_19.35_ctq8_-9.734_ctu8_17.462_ctd8_-9.013_cqq13_6.095_cqq11_1.653_cqu1_10.71_cqd1_-11.055_ctq1_7.571_ctu1_0.484_ctd1_-1.685'> +6.9365753e+01 </wgt>
<wgt id='eftrwgt68_ctg_0.408_cqq83_3.73_cqq81_-12.673_cqu8_-15.054_cqd8_23.598_ctq8_0.269_ctu8_8.53_ctd8_-19.396_cqq13_1.648_cqq11_6.789_cqu1_-10.541_cqd1_-5.767_ctq1_-2.558_ctu1_-8.764_ctd1_1.857'> +1.0762918e+02 </wgt>
<wgt id='eftrwgt69_ctg_0.663_cqq83_-13.808_cqq81_11.681_cqu8_8.175_cqd8_23.585_ctq8_-6.295_ctu8_5.707_ctd8_-2.004_cqq13_2.652_cqq11_0.351_cqu1_-4.864_cqd1_13.53_ctq1_-5.642_ctu1_0.492_ctd1_8.029'> +1.1474487e+02 </wgt>
<wgt id='eftrwgt70_ctg_-0.454_cqq83_-0.455_cqq81_-2.236_cqu8_8.99_cqd8_14.139_ctq8_-10.102_ctu8_-6.093_ctd8_-2.425_cqq13_3.095_cqq11_-0.462_cqu1_-1.855_cqd1_11.152_ctq1_2.965_ctu1_0.951_ctd1_-6.03'> +8.5307314e+01 </wgt>
<wgt id='eftrwgt71_ctg_-0.477_cqq83_-16.758_cqq81_13.224_cqu8_13.232_cqd8_-5.763_ctq8_9.379_ctu8_-10.048_ctd8_-23.022_cqq13_4.391_cqq11_-6.178_cqu1_-8.099_cqd1_-8.009_ctq1_-1.03_ctu1_-2.674_ctd1_-1.681'> +8.4748334e+01 </wgt>
<wgt id='eftrwgt72_ctg_0.622_cqq83_2.696_cqq81_-10.207_cqu8_5.957_cqd8_7.886_ctq8_4.197_ctu8_8.121_ctd8_-20.035_cqq13_2.851_cqq11_-6.744_cqu1_-10.799_cqd1_2.202_ctq1_-7.508_ctu1_-1.701_ctd1_8.892'> +1.1358499e+02 </wgt>
<wgt id='eftrwgt73_ctg_-0.493_cqq83_10.355_cqq81_1.302_cqu8_-9.783_cqd8_-15.531_ctq8_-10.402_ctu8_5.144_ctd8_6.559_cqq13_5.572_cqq11_-0.688_cqu1_-7.729_cqd1_4.564_ctq1_-4.037_ctu1_3.296_ctd1_-5.207'> +8.4360600e+01 </wgt>
<wgt id='eftrwgt74_ctg_-1.313_cqq83_-14.474_cqq81_-0.652_cqu8_2.59_cqd8_16.401_ctq8_2.461_ctu8_-12.258_ctd8_-5.822_cqq13_6.708_cqq11_-5.017_cqu1_7.523_cqd1_10.388_ctq1_-3.975_ctu1_-5.142_ctd1_-12.623'> +6.5722359e+01 </wgt>
<wgt id='eftrwgt75_ctg_-0.166_cqq83_14.655_cqq81_-13.165_cqu8_13.182_cqd8_17.65_ctq8_8.035_ctu8_-7.41_ctd8_5.594_cqq13_-1.583_cqq11_4.47_cqu1_6.793_cqd1_9.148_ctq1_6.872_ctu1_4.564_ctd1_-3.17'> +9.2467838e+01 </wgt>
<wgt id='eftrwgt76_ctg_0.607_cqq83_-7.784_cqq81_0.889_cqu8_-5.808_cqd8_-18.52_ctq8_-10.702_ctu8_6.093_ctd8_5.795_cqq13_-4.86_cqq11_6.059_cqu1_5.977_cqd1_-3.82_ctq1_-0.432_ctu1_0.091_ctd1_12.704'> +1.1316217e+02 </wgt>
<wgt id='eftrwgt77_ctg_-0.008_cqq83_-13.549_cqq81_-2.371_cqu8_-17.548_cqd8_17.783_ctq8_-12.818_ctu8_-10.851_ctd8_-11.002_cqq13_-7.936_cqq11_-0.409_cqu1_4.737_cqd1_0.464_ctq1_-0.138_ctu1_-4.15_ctd1_2.286'> +9.6522938e+01 </wgt>
<wgt id='eftrwgt78_ctg_0.693_cqq83_-17.302_cqq81_-6.475_cqu8_7.814_cqd8_3.71_ctq8_7.916_ctu8_-4.439_ctd8_21.712_cqq13_-1.558_cqq11_5.054_cqu1_2.274_cqd1_7.748_ctq1_-4.741_ctu1_4.163_ctd1_-9.021'> +1.1559740e+02 </wgt>
<wgt id='eftrwgt79_ctg_-1.245_cqq83_-11.588_cqq81_7.305_cqu8_-18.227_cqd8_-8.677_ctq8_11.343_ctu8_2.055_ctd8_-10.604_cqq13_4.361_cqq11_6.251_cqu1_4.537_cqd1_-0.734_ctq1_3.998_ctu1_-6.261_ctd1_-5.045'> +6.7175986e+01 </wgt>
<wgt id='eftrwgt80_ctg_-0.18_cqq83_-10.265_cqq81_2.0_cqu8_-7.281_cqd8_10.418_ctq8_-8.392_ctu8_-11.821_ctd8_14.446_cqq13_4.32_cqq11_-7.909_cqu1_-1.266_cqd1_-1.485_ctq1_7.422_ctu1_-9.567_ctd1_-7.015'> +9.2112856e+01 </wgt>
<wgt id='eftrwgt81_ctg_0.953_cqq83_-15.744_cqq81_-8.719_cqu8_4.233_cqd8_5.5_ctq8_9.427_ctu8_-3.148_ctd8_13.913_cqq13_7.844_cqq11_-2.685_cqu1_-10.526_cqd1_-11.474_ctq1_1.94_ctu1_-0.862_ctd1_-11.271'> +1.2312153e+02 </wgt>
<wgt id='eftrwgt82_ctg_0.709_cqq83_-3.094_cqq81_5.584_cqu8_5.962_cqd8_-12.068_ctq8_7.256_ctu8_-14.777_ctd8_-14.389_cqq13_-4.278_cqq11_8.12_cqu1_0.179_cqd1_-1.651_ctq1_-8.145_ctu1_2.242_ctd1_-10.245'> +1.1605340e+02 </wgt>
<wgt id='eftrwgt83_ctg_0.687_cqq83_-1.156_cqq81_3.18_cqu8_-3.335_cqd8_-0.404_ctq8_-5.778_ctu8_6.62_ctd8_-17.153_cqq13_-5.912_cqq11_5.654_cqu1_-1.269_cqd1_8.004_ctq1_-1.868_ctu1_0.845_ctd1_4.292'> +1.1542663e+02 </wgt>
<wgt id='eftrwgt84_ctg_-0.183_cqq83_-0.308_cqq81_0.037_cqu8_14.309_cqd8_-5.805_ctq8_9.893_ctu8_-5.881_ctd8_-1.437_cqq13_-2.017_cqq11_-6.656_cqu1_-1.67_cqd1_-5.98_ctq1_-8.794_ctu1_2.683_ctd1_9.412'> +9.2036882e+01 </wgt>
<wgt id='eftrwgt85_ctg_-0.942_cqq83_15.035_cqq81_13.373_cqu8_-5.07_cqd8_16.019_ctq8_-8.366_ctu8_14.649_ctd8_22.16_cqq13_-4.681_cqq11_6.562_cqu1_-1.143_cqd1_-10.901_ctq1_-6.626_ctu1_7.385_ctd1_-3.635'> +7.3855386e+01 </wgt>
<wgt id='eftrwgt86_ctg_-0.142_cqq83_-2.994_cqq81_12.042_cqu8_8.306_cqd8_-8.182_ctq8_-12.155_ctu8_-0.571_ctd8_11.633_cqq13_-5.051_cqq11_1.519_cqu1_-1.733_cqd1_9.994_ctq1_-6.524_ctu1_4.94_ctd1_2.118'> +9.3078017e+01 </wgt>
<wgt id='eftrwgt87_ctg_0.929_cqq83_16.258_cqq81_4.432_cqu8_11.37_cqd8_2.732_ctq8_-0.209_ctu8_11.238_ctd8_0.002_cqq13_-3.184_cqq11_5.425_cqu1_-3.268_cqd1_11.628_ctq1_2.342_ctu1_-8.392_ctd1_13.454'> +1.2241681e+02 </wgt>
<wgt id='eftrwgt88_ctg_0.663_cqq83_-0.312_cqq81_4.634_cqu8_13.091_cqd8_20.152_ctq8_-11.08_ctu8_10.132_ctd8_8.016_cqq13_2.666_cqq11_-0.154_cqu1_10.589_cqd1_-1.792_ctq1_-0.235_ctu1_-1.608_ctd1_11.236'> +1.1474487e+02 </wgt>
<wgt id='eftrwgt89_ctg_-0.7_cqq83_-8.489_cqq81_-4.248_cqu8_-16.694_cqd8_11.319_ctq8_10.136_ctu8_16.621_ctd8_-12.449_cqq13_5.869_cqq11_0.2_cqu1_7.255_cqd1_6.776_ctq1_-7.91_ctu1_7.893_ctd1_-13.519'> +7.9427331e+01 </wgt>
<wgt id='eftrwgt90_ctg_1.035_cqq83_-14.726_cqq81_-10.269_cqu8_8.762_cqd8_-16.804_ctq8_-12.281_ctu8_-9.071_ctd8_-18.776_cqq13_-0.931_cqq11_-5.226_cqu1_2.228_cqd1_0.749_ctq1_4.043_ctu1_-9.625_ctd1_12.055'> +1.2554497e+02 </wgt>
<wgt id='eftrwgt91_ctg_0.582_cqq83_7.693_cqq81_-11.295_cqu8_-2.266_cqd8_14.634_ctq8_4.883_ctu8_17.79_ctd8_11.844_cqq13_-6.479_cqq11_-4.102_cqu1_2.603_cqd1_-3.346_ctq1_-0.515_ctu1_-6.838_ctd1_-11.52'> +1.1245924e+02 </wgt>
<wgt id='eftrwgt92_ctg_-1.029_cqq83_4.889_cqq81_-11.405_cqu8_13.309_cqd8_-14.979_ctq8_-5.195_ctu8_6.668_ctd8_-24.798_cqq13_5.441_cqq11_-0.506_cqu1_-0.753_cqd1_-13.543_ctq1_-8.67_ctu1_-7.915_ctd1_-0.334'> +7.1903736e+01 </wgt>
<wgt id='eftrwgt93_ctg_1.323_cqq83_-4.365_cqq81_-4.298_cqu8_7.237_cqd8_-13.74_ctq8_-0.526_ctu8_-16.032_ctd8_-23.867_cqq13_-2.711_cqq11_8.204_cqu1_-9.783_cqd1_-13.301_ctq1_5.357_ctu1_-4.585_ctd1_3.272'> +1.3424825e+02 </wgt>
<wgt id='eftrwgt94_ctg_0.923_cqq83_-5.687_cqq81_-9.274_cqu8_-6.946_cqd8_-18.634_ctq8_-2.87_ctu8_-10.48_ctd8_20.825_cqq13_0.818_cqq11_7.594_cqu1_-2.651_cqd1_-8.209_ctq1_-4.375_ctu1_-0.453_ctd1_-11.307'> +1.2224095e+02 </wgt>
<wgt id='eftrwgt95_ctg_-0.353_cqq83_16.887_cqq81_4.599_cqu8_5.271_cqd8_15.7_ctq8_9.777_ctu8_16.081_ctd8_11.396_cqq13_-1.084_cqq11_-4.79_cqu1_-0.778_cqd1_12.085_ctq1_-5.567_ctu1_-7.961_ctd1_2.198'> +8.7784497e+01 </wgt>
<wgt id='eftrwgt96_ctg_0.041_cqq83_-5.923_cqq81_-2.955_cqu8_4.903_cqd8_20.523_ctq8_-10.841_ctu8_-16.659_ctd8_-20.437_cqq13_-0.715_cqq11_3.365_cqu1_7.617_cqd1_-8.653_ctq1_-1.465_ctu1_-1.263_ctd1_-7.434'> +9.7798778e+01 </wgt>
<wgt id='eftrwgt97_ctg_0.464_cqq83_6.456_cqq81_3.991_cqu8_-17.621_cqd8_21.05_ctq8_-3.045_ctu8_-1.74_ctd8_-0.321_cqq13_-0.503_cqq11_-7.685_cqu1_3.634_cqd1_-8.072_ctq1_-8.465_ctu1_4.741_ctd1_-8.716'> +1.0917180e+02 </wgt>
<wgt id='eftrwgt98_ctg_1.109_cqq83_-17.675_cqq81_-12.841_cqu8_-7.769_cqd8_-4.881_ctq8_8.767_ctu8_1.909_ctd8_-17.434_cqq13_5.514_cqq11_4.151_cqu1_-4.537_cqd1_10.377_ctq1_-0.495_ctu1_-9.214_ctd1_-2.18'> +1.2775275e+02 </wgt>
<wgt id='eftrwgt99_ctg_0.407_cqq83_-15.227_cqq81_3.076_cqu8_16.069_cqd8_-14.34_ctq8_-10.144_ctu8_-13.132_ctd8_6.768_cqq13_-2.495_cqq11_-6.097_cqu1_-9.127_cqd1_6.952_ctq1_6.568_ctu1_4.211_ctd1_13.935'> +1.0760174e+02 </wgt>
<wgt id='eftrwgt100_ctg_-0.701_cqq83_-0.048_cqq81_-13.163_cqu8_5.634_cqd8_10.956_ctq8_-0.744_ctu8_7.675_ctd8_11.807_cqq13_5.749_cqq11_-2.151_cqu1_8.431_cqd1_-6.532_ctq1_6.71_ctu1_1.894_ctd1_-1.052'> +7.9403873e+01 </wgt>
<wgt id='eftrwgt101_ctg_-0.35_cqq83_14.955_cqq81_13.247_cqu8_12.366_cqd8_-17.494_ctq8_13.947_ctu8_15.163_ctd8_24.316_cqq13_-3.799_cqq11_-3.202_cqu1_6.22_cqd1_12.06_ctq1_-5.011_ctu1_-3.243_ctd1_-4.236'> +8.7858638e+01 </wgt>
<wgt id='eftrwgt102_ctg_0.556_cqq83_-5.267_cqq81_-10.439_cqu8_2.364_cqd8_0.675_ctq8_-12.861_ctu8_-7.633_ctd8_-19.227_cqq13_7.964_cqq11_-4.314_cqu1_-5.928_cqd1_-4.03_ctq1_5.914_ctu1_5.907_ctd1_11.347'> +1.1173058e+02 </wgt>
<wgt id='eftrwgt103_ctg_0.125_cqq83_-12.646_cqq81_10.46_cqu8_18.952_cqd8_-13.688_ctq8_-9.243_ctu8_-14.143_ctd8_-9.888_cqq13_-8.119_cqq11_3.122_cqu1_8.657_cqd1_7.658_ctq1_-7.962_ctu1_3.664_ctd1_-2.552'> +1.0000603e+02 </wgt>
<wgt id='eftrwgt104_ctg_-0.763_cqq83_-3.804_cqq81_11.607_cqu8_-13.419_cqd8_14.176_ctq8_-9.066_ctu8_-15.02_ctd8_-4.358_cqq13_-1.193_cqq11_-6.481_cqu1_4.998_cqd1_-9.789_ctq1_1.777_ctu1_10.322_ctd1_2.64'> +7.7956497e+01 </wgt>
<wgt id='eftrwgt105_ctg_-1.088_cqq83_12.665_cqq81_-11.087_cqu8_18.548_cqd8_-4.797_ctq8_-2.92_ctu8_2.89_ctd8_13.714_cqq13_6.529_cqq11_2.903_cqu1_9.448_cqd1_-11.012_ctq1_-0.553_ctu1_-10.792_ctd1_7.312'> +7.0595698e+01 </wgt>
<wgt id='eftrwgt106_ctg_-0.66_cqq83_13.87_cqq81_-10.837_cqu8_-12.598_cqd8_7.858_ctq8_-12.118_ctu8_-7.151_ctd8_16.078_cqq13_4.226_cqq11_0.29_cqu1_-10.828_cqd1_12.788_ctq1_7.2_ctu1_2.803_ctd1_-12.185'> +8.0368603e+01 </wgt>
<wgt id='eftrwgt107_ctg_0.987_cqq83_4.124_cqq81_-7.722_cqu8_-17.904_cqd8_-9.465_ctq8_-8.335_ctu8_11.217_ctd8_22.691_cqq13_-5.276_cqq11_2.989_cqu1_7.593_cqd1_-5.045_ctq1_1.607_ctu1_3.552_ctd1_13.817'> +1.2412344e+02 </wgt>
<wgt id='eftrwgt108_ctg_-0.161_cqq83_-2.662_cqq81_-3.151_cqu8_9.405_cqd8_-12.787_ctq8_6.797_ctu8_12.29_ctd8_-20.381_cqq13_6.286_cqq11_-1.665_cqu1_-10.66_cqd1_13.551_ctq1_-0.592_ctu1_-10.77_ctd1_-11.103'> +9.2594788e+01 </wgt>
<wgt id='eftrwgt109_ctg_-0.866_cqq83_17.321_cqq81_-1.402_cqu8_15.303_cqd8_-9.712_ctq8_-2.135_ctu8_4.236_ctd8_-2.625_cqq13_6.154_cqq11_-5.703_cqu1_2.095_cqd1_6.678_ctq1_-8.391_ctu1_-3.925_ctd1_1.624'> +7.5582559e+01 </wgt>
<wgt id='eftrwgt110_ctg_0.155_cqq83_-16.958_cqq81_-11.926_cqu8_-4.429_cqd8_12.271_ctq8_12.349_ctu8_9.754_ctd8_-5.943_cqq13_1.387_cqq11_-2.925_cqu1_8.241_cqd1_-0.988_ctq1_8.274_ctu1_-10.609_ctd1_-7.304'> +1.0080048e+02 </wgt>
<wgt id='eftrwgt111_ctg_-1.065_cqq83_14.73_cqq81_-1.172_cqu8_-15.353_cqd8_0.237_ctq8_10.108_ctu8_4.492_ctd8_24.01_cqq13_-1.328_cqq11_0.667_cqu1_-2.509_cqd1_0.719_ctq1_0.384_ctu1_-8.496_ctd1_-3.168'> +7.1104121e+01 </wgt>
<wgt id='eftrwgt112_ctg_0.963_cqq83_-9.182_cqq81_0.049_cqu8_8.605_cqd8_-14.263_ctq8_8.142_ctu8_-8.43_ctd8_-11.958_cqq13_-2.649_cqq11_1.046_cqu1_6.616_cqd1_7.998_ctq1_1.189_ctu1_-6.255_ctd1_6.95'> +1.2341578e+02 </wgt>
<wgt id='eftrwgt113_ctg_1.026_cqq83_-11.499_cqq81_-5.535_cqu8_17.173_cqd8_3.883_ctq8_-9.651_ctu8_-11.427_ctd8_18.837_cqq13_6.015_cqq11_6.509_cqu1_10.344_cqd1_-2.658_ctq1_-2.985_ctu1_-3.104_ctd1_9.041'> +1.2527781e+02 </wgt>
<wgt id='eftrwgt114_ctg_1.167_cqq83_14.15_cqq81_-2.248_cqu8_-3.57_cqd8_15.163_ctq8_-12.657_ctu8_5.129_ctd8_6.614_cqq13_-6.863_cqq11_-3.391_cqu1_-0.777_cqd1_-2.994_ctq1_1.952_ctu1_-7.447_ctd1_11.847'> +1.2949694e+02 </wgt>
<wgt id='eftrwgt115_ctg_0.982_cqq83_-16.13_cqq81_-2.864_cqu8_-3.251_cqd8_13.648_ctq8_-3.377_ctu8_-15.255_ctd8_-20.505_cqq13_6.864_cqq11_6.065_cqu1_1.403_cqd1_13.412_ctq1_6.891_ctu1_-5.305_ctd1_6.959'> +1.2397584e+02 </wgt>
<wgt id='eftrwgt116_ctg_0.484_cqq83_-5.877_cqq81_-0.844_cqu8_-8.226_cqd8_-12.543_ctq8_-7.938_ctu8_-14.308_ctd8_-16.759_cqq13_3.295_cqq11_-4.935_cqu1_1.553_cqd1_-2.747_ctq1_1.896_ctu1_-2.598_ctd1_1.468'> +1.0972547e+02 </wgt>
<wgt id='eftrwgt117_ctg_-0.766_cqq83_13.005_cqq81_4.278_cqu8_-5.789_cqd8_-2.642_ctq8_1.928_ctu8_-17.627_ctd8_13.206_cqq13_-3.352_cqq11_-4.623_cqu1_1.281_cqd1_-0.353_ctq1_-7.888_ctu1_-2.739_ctd1_-3.691'> +7.7886814e+01 </wgt>
<wgt id='eftrwgt118_ctg_-0.026_cqq83_16.863_cqq81_-3.657_cqu8_-14.653_cqd8_19.452_ctq8_-11.093_ctu8_7.169_ctd8_12.713_cqq13_2.219_cqq11_6.829_cqu1_-1.47_cqd1_13.329_ctq1_-8.726_ctu1_4.506_ctd1_-6.731'> +9.6056432e+01 </wgt>
<wgt id='eftrwgt119_ctg_-0.927_cqq83_14.324_cqq81_12.494_cqu8_-15.766_cqd8_-22.63_ctq8_7.771_ctu8_17.012_ctd8_-4.27_cqq13_-4.263_cqq11_7.096_cqu1_5.583_cqd1_7.465_ctq1_3.841_ctu1_9.204_ctd1_12.312'> +7.4194629e+01 </wgt>
<wgt id='eftrwgt120_ctg_-1.301_cqq83_2.61_cqq81_-0.228_cqu8_-13.019_cqd8_-7.21_ctq8_-10.88_ctu8_-12.7_ctd8_-9.515_cqq13_3.421_cqq11_-0.285_cqu1_-1.252_cqd1_-3.317_ctq1_7.885_ctu1_3.534_ctd1_11.001'> +6.5977672e+01 </wgt>
<wgt id='eftrwgt121_ctg_0.544_cqq83_-11.95_cqq81_-0.044_cqu8_-3.43_cqd8_-3.87_ctq8_-7.539_ctu8_-14.796_ctd8_-19.179_cqq13_3.035_cqq11_-7.307_cqu1_1.661_cqd1_-9.45_ctq1_-2.9_ctu1_7.446_ctd1_-4.846'> +1.1139510e+02 </wgt>
<wgt id='eftrwgt122_ctg_0.077_cqq83_12.997_cqq81_8.942_cqu8_-12.333_cqd8_-21.55_ctq8_8.94_ctu8_12.874_ctd8_-23.03_cqq13_7.882_cqq11_-0.681_cqu1_1.4_cqd1_6.361_ctq1_-0.884_ctu1_-0.375_ctd1_1.214'> +9.8741633e+01 </wgt>
<wgt id='eftrwgt123_ctg_-1.357_cqq83_9.311_cqq81_-6.821_cqu8_-3.271_cqd8_-16.074_ctq8_9.326_ctu8_14.404_ctd8_-2.447_cqq13_3.173_cqq11_-3.404_cqu1_2.525_cqd1_5.494_ctq1_-7.91_ctu1_-0.974_ctd1_4.439'> +6.4790641e+01 </wgt>
<wgt id='eftrwgt124_ctg_-1.223_cqq83_-12.321_cqq81_-7.848_cqu8_-2.265_cqd8_-5.02_ctq8_-13.565_ctu8_-9.074_ctd8_2.046_cqq13_-4.347_cqq11_5.557_cqu1_1.21_cqd1_-2.046_ctq1_-6.903_ctu1_-4.355_ctd1_2.297'> +6.7649839e+01 </wgt>
<wgt id='eftrwgt125_ctg_0.961_cqq83_6.0_cqq81_5.561_cqu8_-3.626_cqd8_-19.356_ctq8_-2.864_ctu8_-0.243_ctd8_23.255_cqq13_-8.112_cqq11_-5.996_cqu1_9.108_cqd1_-10.685_ctq1_-6.426_ctu1_-1.269_ctd1_3.35'> +1.2335690e+02 </wgt>
<wgt id='eftrwgt126_ctg_0.285_cqq83_-16.325_cqq81_0.476_cqu8_-16.347_cqd8_22.521_ctq8_-0.468_ctu8_-2.288_ctd8_22.57_cqq13_-7.864_cqq11_-2.689_cqu1_6.85_cqd1_8.701_ctq1_6.612_ctu1_10.799_ctd1_5.338'> +1.0428054e+02 </wgt>
<wgt id='eftrwgt127_ctg_-1.378_cqq83_-17.314_cqq81_-12.704_cqu8_-6.427_cqd8_-12.718_ctq8_4.311_ctu8_-7.334_ctd8_-24.506_cqq13_-8.01_cqq11_5.874_cqu1_0.468_cqd1_8.191_ctq1_-0.277_ctu1_8.517_ctd1_-7.478'> +6.4348412e+01 </wgt>
<wgt id='eftrwgt128_ctg_1.18_cqq83_-1.471_cqq81_2.433_cqu8_10.198_cqd8_23.306_ctq8_-12.125_ctu8_16.403_ctd8_18.18_cqq13_7.781_cqq11_-2.869_cqu1_-7.593_cqd1_-6.942_ctq1_0.572_ctu1_3.932_ctd1_-1.468'> +1.2988954e+02 </wgt>
<wgt id='eftrwgt129_ctg_0.941_cqq83_-4.592_cqq81_6.49_cqu8_-5.317_cqd8_16.947_ctq8_12.635_ctu8_-5.132_ctd8_22.403_cqq13_2.333_cqq11_-2.444_cqu1_7.188_cqd1_-3.684_ctq1_-5.675_ctu1_-4.027_ctd1_-1.358'> +1.2276891e+02 </wgt>
<wgt id='eftrwgt130_ctg_-0.208_cqq83_-17.622_cqq81_-2.397_cqu8_15.786_cqd8_15.249_ctq8_-1.44_ctu8_10.097_ctd8_-10.056_cqq13_-3.196_cqq11_4.986_cqu1_-0.332_cqd1_-13.619_ctq1_2.563_ctu1_1.892_ctd1_2.648'> +9.1405010e+01 </wgt>
<wgt id='eftrwgt131_ctg_1.247_cqq83_-17.63_cqq81_-10.818_cqu8_5.208_cqd8_0.681_ctq8_12.537_ctu8_-14.866_ctd8_3.091_cqq13_2.337_cqq11_-5.924_cqu1_5.379_cqd1_5.986_ctq1_-5.666_ctu1_10.553_ctd1_1.395'> +1.3192258e+02 </wgt>
<wgt id='eftrwgt132_ctg_-0.801_cqq83_7.262_cqq81_9.212_cqu8_-8.732_cqd8_-8.091_ctq8_-1.906_ctu8_3.948_ctd8_13.123_cqq13_2.692_cqq11_8.195_cqu1_0.96_cqd1_-1.571_ctq1_5.243_ctu1_-1.861_ctd1_-9.371'> +7.7076233e+01 </wgt>
<wgt id='eftrwgt133_ctg_-1.257_cqq83_16.117_cqq81_-9.715_cqu8_-7.571_cqd8_1.07_ctq8_2.477_ctu8_-7.002_ctd8_13.477_cqq13_-0.711_cqq11_7.763_cqu1_-6.041_cqd1_-7.251_ctq1_-2.998_ctu1_-2.904_ctd1_-12.567'> +6.6918255e+01 </wgt>
<wgt id='eftrwgt134_ctg_1.354_cqq83_-7.657_cqq81_-1.021_cqu8_-16.291_cqd8_1.184_ctq8_-2.275_ctu8_16.917_ctd8_-5.942_cqq13_5.969_cqq11_3.289_cqu1_-10.263_cqd1_4.064_ctq1_8.35_ctu1_-0.11_ctd1_0.257'> +1.3520286e+02 </wgt>
<wgt id='eftrwgt135_ctg_-0.715_cqq83_-9.614_cqq81_-10.763_cqu8_9.461_cqd8_21.044_ctq8_0.83_ctu8_16.276_ctd8_17.397_cqq13_7.427_cqq11_-7.592_cqu1_5.575_cqd1_-12.777_ctq1_0.413_ctu1_-0.337_ctd1_5.614'> +7.9075837e+01 </wgt>
<wgt id='eftrwgt136_ctg_1.148_cqq83_9.105_cqq81_7.25_cqu8_15.489_cqd8_-14.113_ctq8_-1.534_ctu8_-4.722_ctd8_-14.085_cqq13_7.64_cqq11_5.644_cqu1_6.289_cqd1_-3.464_ctq1_-4.467_ctu1_10.661_ctd1_-10.103'> +1.2892423e+02 </wgt>
<wgt id='eftrwgt137_ctg_0.519_cqq83_-3.88_cqq81_5.428_cqu8_-11.688_cqd8_12.458_ctq8_5.584_ctu8_4.192_ctd8_-4.494_cqq13_0.22_cqq11_6.429_cqu1_0.379_cqd1_-2.464_ctq1_3.48_ctu1_8.707_ctd1_10.184'> +1.1069785e+02 </wgt>
<wgt id='eftrwgt138_ctg_0.044_cqq83_15.014_cqq81_-2.24_cqu8_-0.07_cqd8_15.723_ctq8_4.233_ctu8_15.378_ctd8_22.326_cqq13_5.742_cqq11_-7.973_cqu1_5.127_cqd1_8.3_ctq1_-2.237_ctu1_-6.818_ctd1_9.184'> +9.7877171e+01 </wgt>
<wgt id='eftrwgt139_ctg_0.536_cqq83_3.108_cqq81_-2.815_cqu8_17.298_cqd8_-20.517_ctq8_-0.558_ctu8_5.522_ctd8_9.105_cqq13_7.706_cqq11_-1.121_cqu1_6.904_cqd1_-8.677_ctq1_0.168_ctu1_4.991_ctd1_3.884'> +1.1117174e+02 </wgt>
<wgt id='eftrwgt140_ctg_-1.222_cqq83_14.489_cqq81_7.936_cqu8_-5.001_cqd8_-7.099_ctq8_0.704_ctu8_-16.077_ctd8_15.282_cqq13_3.777_cqq11_4.884_cqu1_-3.897_cqd1_-3.233_ctq1_-0.56_ctu1_1.21_ctd1_-11.922'> +6.7671419e+01 </wgt>
<wgt id='eftrwgt141_ctg_-0.595_cqq83_-16.264_cqq81_7.534_cqu8_-4.512_cqd8_17.409_ctq8_3.217_ctu8_-8.193_ctd8_8.464_cqq13_-7.686_cqq11_-1.06_cqu1_4.135_cqd1_9.485_ctq1_-2.481_ctu1_4.42_ctd1_3.636'> +8.1910448e+01 </wgt>
<wgt id='eftrwgt142_ctg_1.208_cqq83_4.059_cqq81_6.781_cqu8_-5.717_cqd8_-21.408_ctq8_0.083_ctu8_14.943_ctd8_11.388_cqq13_0.694_cqq11_-5.103_cqu1_-7.402_cqd1_13.43_ctq1_3.406_ctu1_2.945_ctd1_5.188'> +1.3073720e+02 </wgt>
<wgt id='eftrwgt143_ctg_0.787_cqq83_2.859_cqq81_-12.404_cqu8_17.905_cqd8_18.147_ctq8_5.594_ctu8_13.171_ctd8_-8.3_cqq13_-1.709_cqq11_3.715_cqu1_-2.267_cqd1_0.319_ctq1_-2.513_ctu1_-6.093_ctd1_0.66'> +1.1828960e+02 </wgt>
<wgt id='eftrwgt144_ctg_0.369_cqq83_12.119_cqq81_10.451_cqu8_-4.308_cqd8_10.751_ctq8_2.903_ctu8_-16.453_ctd8_12.168_cqq13_-7.8_cqq11_-4.495_cqu1_-7.968_cqd1_-11.778_ctq1_-0.673_ctu1_9.838_ctd1_7.574'> +1.0656152e+02 </wgt>
<wgt id='eftrwgt145_ctg_-0.314_cqq83_-7.538_cqq81_9.523_cqu8_-0.965_cqd8_7.921_ctq8_-3.669_ctu8_-17.137_ctd8_13.302_cqq13_-0.272_cqq11_-1.659_cqu1_-4.888_cqd1_2.565_ctq1_-4.075_ctu1_7.665_ctd1_4.628'> +8.8750854e+01 </wgt>
<wgt id='eftrwgt146_ctg_-0.028_cqq83_17.018_cqq81_4.288_cqu8_2.423_cqd8_9.91_ctq8_-1.803_ctu8_-7.374_ctd8_-22.743_cqq13_1.412_cqq11_1.518_cqu1_-5.031_cqd1_4.621_ctq1_-2.805_ctu1_-7.971_ctd1_2.504'> +9.6004669e+01 </wgt>
<wgt id='eftrwgt147_ctg_0.512_cqq83_9.531_cqq81_-2.016_cqu8_15.155_cqd8_-1.954_ctq8_-13.237_ctu8_1.868_ctd8_5.908_cqq13_-7.773_cqq11_7.257_cqu1_4.489_cqd1_2.963_ctq1_-3.777_ctu1_5.458_ctd1_-6.432'> +1.1050302e+02 </wgt>
<wgt id='eftrwgt148_ctg_-0.482_cqq83_17.097_cqq81_10.457_cqu8_-6.705_cqd8_-13.185_ctq8_-4.371_ctu8_14.509_ctd8_-13.32_cqq13_1.822_cqq11_0.354_cqu1_7.002_cqd1_10.541_ctq1_5.822_ctu1_5.744_ctd1_-13.15'> +8.4627068e+01 </wgt>
<wgt id='eftrwgt149_ctg_-0.905_cqq83_0.86_cqq81_-13.515_cqu8_11.771_cqd8_-1.866_ctq8_13.439_ctu8_0.144_ctd8_13.675_cqq13_-5.569_cqq11_-7.731_cqu1_1.84_cqd1_3.468_ctq1_-5.507_ctu1_1.982_ctd1_-13.061'> +7.4693651e+01 </wgt>
<wgt id='eftrwgt150_ctg_0.0_cqq83_-11.426_cqq81_-6.524_cqu8_-16.088_cqd8_-21.27_ctq8_10.524_ctu8_14.233_ctd8_17.255_cqq13_4.89_cqq11_-4.416_cqu1_4.918_cqd1_-11.767_ctq1_1.268_ctu1_3.231_ctd1_-6.475'> +9.6730648e+01 </wgt>
<wgt id='eftrwgt151_ctg_-0.918_cqq83_-17.499_cqq81_-6.826_cqu8_10.016_cqd8_16.971_ctq8_1.599_ctu8_16.783_ctd8_5.312_cqq13_-2.351_cqq11_-1.209_cqu1_0.269_cqd1_-8.867_ctq1_-7.829_ctu1_-1.326_ctd1_-0.175'> +7.4398564e+01 </wgt>
<wgt id='eftrwgt152_ctg_-0.246_cqq83_8.939_cqq81_-6.847_cqu8_-18.344_cqd8_21.999_ctq8_6.606_ctu8_9.509_ctd8_17.198_cqq13_-1.071_cqq11_7.466_cqu1_-6.387_cqd1_-1.912_ctq1_8.495_ctu1_-3.261_ctd1_8.87'> +9.0448871e+01 </wgt>
<wgt id='eftrwgt153_ctg_0.903_cqq83_-16.714_cqq81_4.491_cqu8_13.339_cqd8_3.836_ctq8_10.658_ctu8_1.169_ctd8_-12.868_cqq13_-4.118_cqq11_5.124_cqu1_5.936_cqd1_-5.521_ctq1_-6.529_ctu1_-3.471_ctd1_-8.961'> +1.2165570e+02 </wgt>
<wgt id='eftrwgt154_ctg_-0.773_cqq83_-11.295_cqq81_11.399_cqu8_12.409_cqd8_-7.958_ctq8_-6.63_ctu8_17.921_ctd8_-4.387_cqq13_-1.075_cqq11_-3.648_cqu1_0.733_cqd1_9.925_ctq1_-5.979_ctu1_6.286_ctd1_-8.945'> +7.7724346e+01 </wgt>
<wgt id='eftrwgt155_ctg_-1.155_cqq83_10.436_cqq81_11.789_cqu8_11.375_cqd8_0.293_ctq8_-12.103_ctu8_-1.324_ctd8_-13.307_cqq13_0.647_cqq11_-1.508_cqu1_4.529_cqd1_-4.847_ctq1_-1.864_ctu1_7.458_ctd1_-2.56'> +6.9125483e+01 </wgt>
<wgt id='eftrwgt156_ctg_1.116_cqq83_-1.502_cqq81_7.154_cqu8_-6.575_cqd8_-19.147_ctq8_-2.196_ctu8_15.471_ctd8_-13.501_cqq13_6.413_cqq11_3.8_cqu1_-1.927_cqd1_3.978_ctq1_3.939_ctu1_-0.696_ctd1_7.298'> +1.2796261e+02 </wgt>
<wgt id='eftrwgt157_ctg_-0.739_cqq83_2.709_cqq81_13.851_cqu8_9.744_cqd8_-15.601_ctq8_-3.406_ctu8_0.534_ctd8_13.826_cqq13_-5.94_cqq11_0.154_cqu1_4.119_cqd1_-0.999_ctq1_7.262_ctu1_1.145_ctd1_4.349'> +7.8515131e+01 </wgt>
<wgt id='eftrwgt158_ctg_-0.16_cqq83_8.752_cqq81_-10.353_cqu8_13.772_cqd8_-19.74_ctq8_1.97_ctu8_-17.022_ctd8_-15.946_cqq13_4.368_cqq11_-3.748_cqu1_-3.331_cqd1_1.681_ctq1_0.02_ctu1_3.467_ctd1_11.988'> +9.2620188e+01 </wgt>
<wgt id='eftrwgt159_ctg_-0.773_cqq83_-5.383_cqq81_11.182_cqu8_14.253_cqd8_22.486_ctq8_4.123_ctu8_16.717_ctd8_16.197_cqq13_7.633_cqq11_3.65_cqu1_3.518_cqd1_4.557_ctq1_0.213_ctu1_-8.115_ctd1_5.813'> +7.7724346e+01 </wgt>
<wgt id='eftrwgt160_ctg_-0.954_cqq83_13.029_cqq81_10.509_cqu8_2.914_cqd8_-7.008_ctq8_3.519_ctu8_-4.882_ctd8_-8.587_cqq13_-4.654_cqq11_6.741_cqu1_-8.034_cqd1_8.536_ctq1_7.776_ctu1_8.243_ctd1_-6.062'> +7.3584574e+01 </wgt>
<wgt id='eftrwgt161_ctg_0.783_cqq83_-0.823_cqq81_-10.667_cqu8_6.458_cqd8_-6.599_ctq8_5.205_ctu8_-17.575_ctd8_-8.783_cqq13_-6.096_cqq11_-7.308_cqu1_-4.219_cqd1_4.937_ctq1_-6.352_ctu1_4.953_ctd1_3.017'> +1.1817438e+02 </wgt>
<wgt id='eftrwgt162_ctg_-0.671_cqq83_16.815_cqq81_-12.317_cqu8_1.448_cqd8_10.899_ctq8_4.606_ctu8_-11.122_ctd8_-10.201_cqq13_4.82_cqq11_3.575_cqu1_-8.572_cqd1_11.857_ctq1_5.276_ctu1_-9.587_ctd1_8.531'> +8.0109180e+01 </wgt>
<wgt id='eftrwgt163_ctg_1.242_cqq83_16.122_cqq81_-8.636_cqu8_-5.852_cqd8_7.335_ctq8_-5.7_ctu8_-13.545_ctd8_24.321_cqq13_5.114_cqq11_-6.63_cqu1_-4.255_cqd1_8.437_ctq1_-6.875_ctu1_9.128_ctd1_2.843'> +1.3177030e+02 </wgt>
<wgt id='eftrwgt164_ctg_1.092_cqq83_-5.055_cqq81_-8.599_cqu8_4.203_cqd8_-7.68_ctq8_-11.588_ctu8_0.276_ctd8_17.336_cqq13_-7.727_cqq11_-5.834_cqu1_-7.894_cqd1_-13.963_ctq1_8.207_ctu1_2.956_ctd1_-11.592'> +1.2724382e+02 </wgt>
<wgt id='eftrwgt165_ctg_0.595_cqq83_4.636_cqq81_-0.11_cqu8_-0.581_cqd8_-20.832_ctq8_-0.558_ctu8_4.659_ctd8_14.601_cqq13_-7.948_cqq11_3.039_cqu1_4.976_cqd1_-0.906_ctq1_-5.244_ctu1_-2.665_ctd1_-11.849'> +1.1282448e+02 </wgt>
<wgt id='eftrwgt166_ctg_1.216_cqq83_5.127_cqq81_1.484_cqu8_12.31_cqd8_15.332_ctq8_-1.18_ctu8_2.062_ctd8_7.64_cqq13_-3.138_cqq11_3.748_cqu1_-2.564_cqd1_-4.289_ctq1_4.03_ctu1_7.302_ctd1_-7.704'> +1.3097991e+02 </wgt>
<wgt id='eftrwgt167_ctg_1.033_cqq83_5.72_cqq81_-1.985_cqu8_-0.401_cqd8_0.76_ctq8_-4.788_ctu8_5.904_ctd8_-7.804_cqq13_5.806_cqq11_-6.292_cqu1_-1.952_cqd1_-8.265_ctq1_2.846_ctu1_-6.057_ctd1_7.749'> +1.2548558e+02 </wgt>
<wgt id='eftrwgt168_ctg_-0.37_cqq83_17.55_cqq81_9.651_cqu8_-15.831_cqd8_-2.866_ctq8_-6.609_ctu8_-14.397_ctd8_5.753_cqq13_5.663_cqq11_-8.112_cqu1_-9.915_cqd1_6.099_ctq1_-0.019_ctu1_-1.021_ctd1_-5.252'> +8.7364976e+01 </wgt>
<wgt id='eftrwgt169_ctg_-1.172_cqq83_17.994_cqq81_-4.282_cqu8_-10.241_cqd8_-2.149_ctq8_-9.811_ctu8_-0.052_ctd8_20.563_cqq13_0.796_cqq11_-3.46_cqu1_8.811_cqd1_-11.665_ctq1_2.613_ctu1_-2.034_ctd1_-11.62'> +6.8755013e+01 </wgt>
<wgt id='eftrwgt170_ctg_-1.173_cqq83_-5.111_cqq81_9.87_cqu8_12.84_cqd8_15.747_ctq8_6.145_ctu8_16.166_ctd8_21.901_cqq13_1.621_cqq11_-4.815_cqu1_-6.967_cqd1_-9.672_ctq1_8.708_ctu1_-3.905_ctd1_5.596'> +6.8733252e+01 </wgt>
<wgt id='eftrwgt171_ctg_-0.487_cqq83_-3.728_cqq81_-2.089_cqu8_-8.617_cqd8_-3.165_ctq8_5.221_ctu8_-6.935_ctd8_-10.922_cqq13_2.93_cqq11_-3.943_cqu1_0.026_cqd1_10.454_ctq1_1.412_ctu1_-4.837_ctd1_4.419'> +8.4505893e+01 </wgt>
<wgt id='eftrwgt172_ctg_0.395_cqq83_8.99_cqq81_-3.002_cqu8_-13.401_cqd8_-8.393_ctq8_6.268_ctu8_10.287_ctd8_3.578_cqq13_-0.326_cqq11_0.491_cqu1_-1.452_cqd1_0.292_ctq1_2.055_ctu1_8.333_ctd1_-11.0'> +1.0727268e+02 </wgt>
<wgt id='eftrwgt173_ctg_-0.268_cqq83_-9.609_cqq81_-10.088_cqu8_-10.258_cqd8_2.411_ctq8_-9.923_ctu8_-12.813_ctd8_-11.549_cqq13_-0.115_cqq11_0.881_cqu1_3.83_cqd1_-7.017_ctq1_-5.831_ctu1_5.916_ctd1_9.799'> +8.9897693e+01 </wgt>
<wgt id='eftrwgt174_ctg_0.0_cqq83_14.255_cqq81_-3.162_cqu8_7.632_cqd8_8.455_ctq8_-10.706_ctu8_12.248_ctd8_-7.818_cqq13_-7.674_cqq11_3.169_cqu1_-10.606_cqd1_10.997_ctq1_7.461_ctu1_-1.024_ctd1_-12.78'> +9.6730648e+01 </wgt>
<wgt id='eftrwgt175_ctg_0.97_cqq83_0.362_cqq81_12.475_cqu8_-6.155_cqd8_12.941_ctq8_-11.631_ctu8_12.793_ctd8_5.998_cqq13_5.415_cqq11_3.61_cqu1_3.086_cqd1_11.222_ctq1_-7.83_ctu1_7.604_ctd1_-6.316'> +1.2362196e+02 </wgt>
<wgt id='eftrwgt176_ctg_-0.671_cqq83_9.217_cqq81_12.675_cqu8_-5.504_cqd8_11.909_ctq8_-13.928_ctu8_3.526_ctd8_12.153_cqq13_6.419_cqq11_-4.462_cqu1_-8.472_cqd1_-6.853_ctq1_-5.497_ctu1_9.273_ctd1_7.938'> +8.0109180e+01 </wgt>
<wgt id='eftrwgt177_ctg_-0.305_cqq83_7.149_cqq81_-4.524_cqu8_-16.678_cqd8_-16.144_ctq8_5.076_ctu8_-17.746_ctd8_16.893_cqq13_4.267_cqq11_2.618_cqu1_4.353_cqd1_8.975_ctq1_4.66_ctu1_3.456_ctd1_-10.007'> +8.8974636e+01 </wgt>
<wgt id='eftrwgt178_ctg_-0.022_cqq83_13.793_cqq81_-0.578_cqu8_13.877_cqd8_-10.596_ctq8_10.476_ctu8_5.651_ctd8_8.781_cqq13_7.781_cqq11_-0.157_cqu1_-3.425_cqd1_10.096_ctq1_-6.687_ctu1_-1.677_ctd1_2.543'> +9.6159999e+01 </wgt>
<wgt id='eftrwgt179_ctg_0.497_cqq83_-6.916_cqq81_13.035_cqu8_-5.975_cqd8_12.419_ctq8_5.679_ctu8_-2.58_ctd8_-17.339_cqq13_-3.741_cqq11_-1.097_cqu1_-5.551_cqd1_-0.983_ctq1_-5.692_ctu1_4.263_ctd1_4.456'> +1.1008612e+02 </wgt>
<wgt id='sm_point'> +9.6730648e+01 </wgt>
<wgt id='1001'> +1.1579678e+02 </wgt>
<wgt id='1002'> +8.9936643e+01 </wgt>
<wgt id='1003'> +8.9936643e+01 </wgt>
<wgt id='1004'> +1.1264195e+02 </wgt>
<wgt id='1005'> +8.4613377e+01 </wgt>
<wgt id='1006'> +9.6873761e+01 </wgt>
<wgt id='1007'> +7.6381049e+01 </wgt>
<wgt id='1008'> +7.6381049e+01 </wgt>
<wgt id='1009'> +9.4224390e+01 </wgt>
<wgt id='1010'> +7.2135500e+01 </wgt>
<wgt id='1011'> +1.4097987e+02 </wgt>
<wgt id='1012'> +1.0751610e+02 </wgt>
<wgt id='1013'> +1.0751610e+02 </wgt>
<wgt id='1014'> +1.3715685e+02 </wgt>
<wgt id='1015'> +1.0069301e+02 </wgt>
<wgt id='1016'> +1.1103724e+02 </wgt>
<wgt id='1017'> +8.5648587e+01 </wgt>
<wgt id='1018'> +8.5648587e+01 </wgt>
<wgt id='1019'> +1.0751610e+02 </wgt>
<wgt id='1020'> +8.0550764e+01 </wgt>
<wgt id='1021'> +9.2892007e+01 </wgt>
<wgt id='1022'> +7.2739304e+01 </wgt>
<wgt id='1023'> +7.2739304e+01 </wgt>
<wgt id='1024'> +8.9936643e+01 </wgt>
<wgt id='1025'> +6.8671997e+01 </wgt>
<wgt id='1026'> +1.3518524e+02 </wgt>
<wgt id='1027'> +1.0238988e+02 </wgt>
<wgt id='1028'> +1.0238988e+02 </wgt>
<wgt id='1029'> +1.3091544e+02 </wgt>
<wgt id='1030'> +9.5858353e+01 </wgt>
<wgt id='1031'> +1.1983524e+02 </wgt>
<wgt id='1032'> +9.4224390e+01 </wgt>
<wgt id='1033'> +9.4224390e+01 </wgt>
<wgt id='1034'> +1.1751504e+02 </wgt>
<wgt id='1035'> +8.8707936e+01 </wgt>
<wgt id='1036'> +1.0025227e+02 </wgt>
<wgt id='1037'> +8.0022529e+01 </wgt>
<wgt id='1038'> +8.0022529e+01 </wgt>
<wgt id='1039'> +9.8300701e+01 </wgt>
<wgt id='1040'> +7.5626237e+01 </wgt>
<wgt id='1041'> +1.4589660e+02 </wgt>
<wgt id='1042'> +1.1264195e+02 </wgt>
<wgt id='1043'> +1.1264195e+02 </wgt>
<wgt id='1044'> +1.4309050e+02 </wgt>
<wgt id='1045'> +1.0556569e+02 </wgt>
<wgt id='1046'> +1.3286705e+02 </wgt>
<wgt id='1047'> +1.0258531e+02 </wgt>
<wgt id='1048'> +1.1579678e+02 </wgt>
<wgt id='1049'> +1.1603409e+02 </wgt>
<wgt id='1050'> +1.1546604e+02 </wgt>
<wgt id='1051'> +1.1558186e+02 </wgt>
<wgt id='1052'> +1.1604126e+02 </wgt>
<wgt id='1053'> +1.1600276e+02 </wgt>
<wgt id='1054'> +1.1611080e+02 </wgt>
<wgt id='1055'> +1.1609582e+02 </wgt>
<wgt id='1056'> +1.1648084e+02 </wgt>
<wgt id='1057'> +1.1562394e+02 </wgt>
<wgt id='1058'> +1.1578683e+02 </wgt>
<wgt id='1059'> +1.1519751e+02 </wgt>
<wgt id='1060'> +1.1609539e+02 </wgt>
<wgt id='1061'> +1.1604644e+02 </wgt>
<wgt id='1062'> +1.1626972e+02 </wgt>
<wgt id='1063'> +1.1608592e+02 </wgt>
<wgt id='1064'> +1.1583077e+02 </wgt>
<wgt id='1065'> +1.1574671e+02 </wgt>
<wgt id='1066'> +1.1556080e+02 </wgt>
<wgt id='1067'> +1.1657140e+02 </wgt>
<wgt id='1068'> +1.1536176e+02 </wgt>
<wgt id='1069'> +1.1573509e+02 </wgt>
<wgt id='1070'> +1.1540028e+02 </wgt>
<wgt id='1071'> +1.1569047e+02 </wgt>
<wgt id='1072'> +1.1581673e+02 </wgt>
<wgt id='1073'> +1.1579218e+02 </wgt>
<wgt id='1074'> +1.1563494e+02 </wgt>
<wgt id='1075'> +1.1534015e+02 </wgt>
<wgt id='1076'> +1.1603671e+02 </wgt>
<wgt id='1077'> +1.1535266e+02 </wgt>
<wgt id='1078'> +1.1572373e+02 </wgt>
<wgt id='1079'> +1.1540337e+02 </wgt>
<wgt id='1080'> +1.1582239e+02 </wgt>
<wgt id='1081'> +1.1564764e+02 </wgt>
<wgt id='1082'> +1.1561615e+02 </wgt>
<wgt id='1083'> +1.1580884e+02 </wgt>
<wgt id='1084'> +1.1603063e+02 </wgt>
<wgt id='1085'> +1.1578289e+02 </wgt>
<wgt id='1086'> +1.1575395e+02 </wgt>
<wgt id='1087'> +1.1581169e+02 </wgt>
<wgt id='1088'> +1.1573910e+02 </wgt>
<wgt id='1089'> +1.1581047e+02 </wgt>
<wgt id='1090'> +1.1584329e+02 </wgt>
<wgt id='1091'> +1.1570692e+02 </wgt>
<wgt id='1092'> +1.1589271e+02 </wgt>
<wgt id='1093'> +1.1582478e+02 </wgt>
<wgt id='1094'> +1.1582758e+02 </wgt>
<wgt id='1095'> +1.1577269e+02 </wgt>
<wgt id='1096'> +1.1574215e+02 </wgt>
<wgt id='1097'> +1.1570967e+02 </wgt>
<wgt id='1098'> +1.1575185e+02 </wgt>
<wgt id='1099'> +1.1578697e+02 </wgt>
<wgt id='1100'> +1.1589415e+02 </wgt>
<wgt id='1101'> +1.1577121e+02 </wgt>
<wgt id='1102'> +1.1579267e+02 </wgt>
<wgt id='1103'> +1.1582484e+02 </wgt>
<wgt id='1104'> +1.1575506e+02 </wgt>
<wgt id='1105'> +1.1584204e+02 </wgt>
<wgt id='1106'> +1.1581591e+02 </wgt>
<wgt id='1107'> +1.1582438e+02 </wgt>
<wgt id='1108'> +1.1580686e+02 </wgt>
<wgt id='1109'> +1.1577818e+02 </wgt>
<wgt id='1110'> +1.1589693e+02 </wgt>
<wgt id='1111'> +1.1582383e+02 </wgt>
<wgt id='1112'> +1.1582643e+02 </wgt>
<wgt id='1113'> +1.1589948e+02 </wgt>
<wgt id='1114'> +1.1580008e+02 </wgt>
<wgt id='1115'> +1.1583145e+02 </wgt>
<wgt id='1116'> +1.1580826e+02 </wgt>
<wgt id='1117'> +1.1581190e+02 </wgt>
<wgt id='1118'> +1.1580977e+02 </wgt>
<wgt id='1119'> +1.1580259e+02 </wgt>
<wgt id='1120'> +1.1580185e+02 </wgt>
<wgt id='1121'> +1.1582340e+02 </wgt>
<wgt id='1122'> +1.1577612e+02 </wgt>
<wgt id='1123'> +1.1577402e+02 </wgt>
<wgt id='1124'> +1.1578781e+02 </wgt>
<wgt id='1125'> +1.1585667e+02 </wgt>
<wgt id='1126'> +1.1581325e+02 </wgt>
<wgt id='1127'> +1.1577013e+02 </wgt>
<wgt id='1128'> +1.1580079e+02 </wgt>
<wgt id='1129'> +1.1578034e+02 </wgt>
<wgt id='1130'> +1.1581309e+02 </wgt>
<wgt id='1131'> +1.1583523e+02 </wgt>
<wgt id='1132'> +1.1581178e+02 </wgt>
<wgt id='1133'> +1.1579441e+02 </wgt>
<wgt id='1134'> +1.1577808e+02 </wgt>
<wgt id='1135'> +1.1581391e+02 </wgt>
<wgt id='1136'> +1.1578973e+02 </wgt>
<wgt id='1137'> +1.1578559e+02 </wgt>
<wgt id='1138'> +1.1581682e+02 </wgt>
<wgt id='1139'> +1.1579593e+02 </wgt>
<wgt id='1140'> +1.1581410e+02 </wgt>
<wgt id='1141'> +1.1577784e+02 </wgt>
<wgt id='1142'> +1.1580047e+02 </wgt>
<wgt id='1143'> +1.1581167e+02 </wgt>
<wgt id='1144'> +1.1578378e+02 </wgt>
<wgt id='1145'> +1.1580956e+02 </wgt>
<wgt id='1146'> +1.1579477e+02 </wgt>
<wgt id='1147'> +1.1581431e+02 </wgt>
<wgt id='1148'> +1.1579678e+02 </wgt>
<wgt id='1149'> +1.1125936e+02 </wgt>
<wgt id='1150'> +1.2025729e+02 </wgt>
<wgt id='1151'> +1.1579678e+02 </wgt>
<wgt id='1152'> +1.1529389e+02 </wgt>
<wgt id='1153'> +1.1492597e+02 </wgt>
<wgt id='1154'> +1.1982651e+02 </wgt>
<wgt id='1155'> +1.1685459e+02 </wgt>
<wgt id='1156'> +1.1470679e+02 </wgt>
<wgt id='1157'> +1.1967753e+02 </wgt>
<wgt id='1158'> +1.1514575e+02 </wgt>
<wgt id='1159'> +1.1417738e+02 </wgt>
<wgt id='1160'> +1.1782662e+02 </wgt>
<wgt id='1161'> +1.1817042e+02 </wgt>
<wgt id='1162'> +1.1881404e+02 </wgt>
<wgt id='1163'> +1.1642836e+02 </wgt>
<wgt id='1164'> +1.1442410e+02 </wgt>
<wgt id='1165'> +1.1430458e+02 </wgt>
<wgt id='1166'> +1.1676010e+02 </wgt>
<wgt id='1167'> +1.1787575e+02 </wgt>
<wgt id='1168'> +1.1808373e+02 </wgt>
<wgt id='1169'> +1.1580857e+02 </wgt>
<wgt id='1170'> +1.1301483e+02 </wgt>
<wgt id='1171'> +1.1463593e+02 </wgt>
<wgt id='1172'> +1.1338691e+02 </wgt>
<wgt id='1173'> +1.1272957e+02 </wgt>
<wgt id='1174'> +1.1325097e+02 </wgt>
<wgt id='1175'> +1.1310766e+02 </wgt>
<wgt id='1176'> +1.1350687e+02 </wgt>
<wgt id='1177'> +1.1511182e+02 </wgt>
<wgt id='1178'> +1.1351219e+02 </wgt>
<wgt id='1179'> +1.1643804e+02 </wgt>
<wgt id='1180'> +1.1765257e+02 </wgt>
<wgt id='1181'> +1.1893391e+02 </wgt>
<wgt id='1182'> +1.1737325e+02 </wgt>
<wgt id='1183'> +1.1825737e+02 </wgt>
<wgt id='1184'> +1.1429554e+02 </wgt>
<wgt id='1185'> +1.1509389e+02 </wgt>
<wgt id='1186'> +1.1779636e+02 </wgt>
<wgt id='1187'> +1.1541840e+02 </wgt>
<wgt id='1188'> +1.1668416e+02 </wgt>
<wgt id='1189'> +1.1541073e+02 </wgt>
<wgt id='1190'> +1.1681251e+02 </wgt>
<wgt id='1191'> +1.1528231e+02 </wgt>
<wgt id='1192'> +1.1590546e+02 </wgt>
<wgt id='1193'> +1.1476912e+02 </wgt>
<wgt id='1194'> +1.1533724e+02 </wgt>
<wgt id='1195'> +1.1482305e+02 </wgt>
<wgt id='1196'> +1.1572440e+02 </wgt>
<wgt id='1197'> +1.1663238e+02 </wgt>
<wgt id='1198'> +1.1417761e+02 </wgt>
<wgt id='1199'> +1.1251744e+02 </wgt>
<wgt id='1200'> +1.1754373e+02 </wgt>
<wgt id='1201'> +1.1822966e+02 </wgt>
<wgt id='1202'> +1.1638249e+02 </wgt>
<wgt id='1203'> +1.1389683e+02 </wgt>
<wgt id='1204'> +1.1497419e+02 </wgt>
<wgt id='1205'> +1.1700584e+02 </wgt>
<wgt id='1206'> +1.1264408e+02 </wgt>
<wgt id='1207'> +1.1487032e+02 </wgt>
<wgt id='1208'> +1.1512522e+02 </wgt>
<wgt id='1209'> +1.1257575e+02 </wgt>
<wgt id='1210'> +1.1817057e+02 </wgt>
<wgt id='1211'> +1.1646193e+02 </wgt>
<wgt id='1212'> +1.1617637e+02 </wgt>
<wgt id='1213'> +1.1534424e+02 </wgt>
<wgt id='1214'> +1.1204757e+02 </wgt>
<wgt id='1215'> +1.1465875e+02 </wgt>
<wgt id='1216'> +1.1471805e+02 </wgt>
<wgt id='1217'> +1.1598976e+02 </wgt>
<wgt id='1218'> +1.1322057e+02 </wgt>
<wgt id='1219'> +1.1719925e+02 </wgt>
<wgt id='1220'> +1.1482188e+02 </wgt>
<wgt id='1221'> +1.1336216e+02 </wgt>
<wgt id='1222'> +1.1811542e+02 </wgt>
<wgt id='1223'> +1.1646606e+02 </wgt>
<wgt id='1224'> +1.1721052e+02 </wgt>
<wgt id='1225'> +1.1796881e+02 </wgt>
<wgt id='1226'> +1.1799007e+02 </wgt>
<wgt id='1227'> +1.1824630e+02 </wgt>
<wgt id='1228'> +1.1373525e+02 </wgt>
<wgt id='1229'> +1.1797729e+02 </wgt>
<wgt id='1230'> +1.1535275e+02 </wgt>
<wgt id='1231'> +1.1522072e+02 </wgt>
<wgt id='1232'> +1.1261038e+02 </wgt>
<wgt id='1233'> +1.1787575e+02 </wgt>
<wgt id='1234'> +1.1569889e+02 </wgt>
<wgt id='1235'> +1.1571376e+02 </wgt>
<wgt id='1236'> +1.2113458e+02 </wgt>
<wgt id='1237'> +1.1298583e+02 </wgt>
<wgt id='1238'> +1.1753332e+02 </wgt>
<wgt id='1239'> +1.1786893e+02 </wgt>
<wgt id='1240'> +1.1948288e+02 </wgt>
<wgt id='1241'> +1.1530035e+02 </wgt>
<wgt id='1242'> +1.1430969e+02 </wgt>
<wgt id='1243'> +1.1765155e+02 </wgt>
<wgt id='1244'> +1.1662418e+02 </wgt>
<wgt id='1245'> +1.1543745e+02 </wgt>
<wgt id='1246'> +1.1570278e+02 </wgt>
<wgt id='1247'> +1.1460254e+02 </wgt>
<wgt id='1248'> +1.1343651e+02 </wgt>
<wgt id='1249'> +1.1684284e+02 </wgt>
<wgt id='1250'> +1.1437451e+02 </wgt>
<wgt id='1251'> +1.1479287e+02 </wgt>
<wgt id='1252'> +1.1589711e+02 </wgt>
<wgt id='1253'> +1.1574084e+02 </wgt>
<wgt id='1254'> +1.1602121e+02 </wgt>
<wgt id='1255'> +1.1603223e+02 </wgt>
<wgt id='1256'> +1.1615235e+02 </wgt>
<wgt id='1257'> +1.1571297e+02 </wgt>
<wgt id='1258'> +1.1554963e+02 </wgt>
<wgt id='1259'> +1.1536381e+02 </wgt>
<wgt id='1260'> +1.1531644e+02 </wgt>
<wgt id='1261'> +1.1613853e+02 </wgt>
<wgt id='1262'> +1.1596230e+02 </wgt>
<wgt id='1263'> +1.1564272e+02 </wgt>
<wgt id='1264'> +1.1600455e+02 </wgt>
<wgt id='1265'> +1.1598119e+02 </wgt>
<wgt id='1266'> +1.1640013e+02 </wgt>
<wgt id='1267'> +1.1619166e+02 </wgt>
<wgt id='1268'> +1.1603520e+02 </wgt>
<wgt id='1269'> +1.1588380e+02 </wgt>
<wgt id='1270'> +1.1623971e+02 </wgt>
<wgt id='1271'> +1.1590706e+02 </wgt>
<wgt id='1272'> +1.1655920e+02 </wgt>
<wgt id='1273'> +1.1557452e+02 </wgt>
<wgt id='1274'> +1.1644459e+02 </wgt>
<wgt id='1275'> +1.1624158e+02 </wgt>
<wgt id='1276'> +1.1582521e+02 </wgt>
<wgt id='1277'> +1.1660991e+02 </wgt>
<wgt id='1278'> +1.1643700e+02 </wgt>
<wgt id='1279'> +1.1568165e+02 </wgt>
<wgt id='1280'> +1.1549980e+02 </wgt>
<wgt id='1281'> +1.1613714e+02 </wgt>
<wgt id='1282'> +1.1592622e+02 </wgt>
<wgt id='1283'> +1.1611254e+02 </wgt>
<wgt id='1284'> +1.1576329e+02 </wgt>
<wgt id='1285'> +1.1591029e+02 </wgt>
<wgt id='1286'> +1.1608714e+02 </wgt>
<wgt id='1287'> +1.1586840e+02 </wgt>
<wgt id='1288'> +1.1597761e+02 </wgt>
<wgt id='1289'> +1.1599330e+02 </wgt>
<wgt id='1290'> +1.1591691e+02 </wgt>
<wgt id='1291'> +1.1584502e+02 </wgt>
<wgt id='1292'> +1.1595532e+02 </wgt>
<wgt id='1293'> +1.1589315e+02 </wgt>
<wgt id='1294'> +1.1573545e+02 </wgt>
<wgt id='1295'> +1.1599062e+02 </wgt>
<wgt id='1296'> +1.1600731e+02 </wgt>
<wgt id='1297'> +1.1588014e+02 </wgt>
<wgt id='1298'> +1.1597495e+02 </wgt>
<wgt id='1299'> +1.1600826e+02 </wgt>
<wgt id='1300'> +1.1588233e+02 </wgt>
<wgt id='1301'> +1.1589946e+02 </wgt>
<wgt id='1302'> +1.1594889e+02 </wgt>
<wgt id='1303'> +1.1599299e+02 </wgt>
<wgt id='1304'> +1.1584799e+02 </wgt>
<wgt id='1305'> +1.1587887e+02 </wgt>
<wgt id='1306'> +1.1589713e+02 </wgt>
<wgt id='1307'> +1.1591491e+02 </wgt>
<wgt id='1308'> +1.1590297e+02 </wgt>
<wgt id='1309'> +1.1590705e+02 </wgt>
<wgt id='1310'> +1.1594394e+02 </wgt>
<wgt id='1311'> +1.1588552e+02 </wgt>
<wgt id='1312'> +1.1593282e+02 </wgt>
<wgt id='1313'> +1.1585358e+02 </wgt>
<wgt id='1314'> +1.1588423e+02 </wgt>
<wgt id='1315'> +1.1590023e+02 </wgt>
<wgt id='1316'> +1.1584425e+02 </wgt>
<wgt id='1317'> +1.1591738e+02 </wgt>
<wgt id='1318'> +1.1585392e+02 </wgt>
<wgt id='1319'> +1.1589623e+02 </wgt>
<wgt id='1320'> +1.1592980e+02 </wgt>
<wgt id='1321'> +1.1592208e+02 </wgt>
<wgt id='1322'> +1.1589381e+02 </wgt>
<wgt id='1323'> +1.1585776e+02 </wgt>
<wgt id='1324'> +1.1591300e+02 </wgt>
<wgt id='1325'> +1.1590496e+02 </wgt>
<wgt id='1326'> +1.1589824e+02 </wgt>
<wgt id='1327'> +1.1587569e+02 </wgt>
<wgt id='1328'> +1.1591033e+02 </wgt>
<wgt id='1329'> +1.1586563e+02 </wgt>
<wgt id='1330'> +1.1589443e+02 </wgt>
<wgt id='1331'> +1.1592271e+02 </wgt>
<wgt id='1332'> +1.1590052e+02 </wgt>
<wgt id='1333'> +1.1591453e+02 </wgt>
<wgt id='1334'> +1.1591705e+02 </wgt>
<wgt id='1335'> +1.1588427e+02 </wgt>
<wgt id='1336'> +1.1589519e+02 </wgt>
<wgt id='1337'> +1.1587396e+02 </wgt>
<wgt id='1338'> +1.1589908e+02 </wgt>
<wgt id='1339'> +1.1589137e+02 </wgt>
<wgt id='1340'> +1.1590424e+02 </wgt>
<wgt id='1341'> +1.1590652e+02 </wgt>
<wgt id='1342'> +1.1590309e+02 </wgt>
<wgt id='1343'> +1.1588517e+02 </wgt>
<wgt id='1344'> +1.1589138e+02 </wgt>
<wgt id='1345'> +1.1589498e+02 </wgt>
<wgt id='1346'> +1.1588952e+02 </wgt>
<wgt id='1347'> +1.1589389e+02 </wgt>
<wgt id='1348'> +1.1588980e+02 </wgt>
<wgt id='1349'> +1.1591647e+02 </wgt>
<wgt id='1350'> +1.1587934e+02 </wgt>
<wgt id='1351'> +1.1590777e+02 </wgt>
<wgt id='1352'> +1.1589363e+02 </wgt>
<wgt id='1353'> +1.1125936e+02 </wgt>
<wgt id='1354'> +1.2025729e+02 </wgt>
<wgt id='1355'> +9.5555892e+01 </wgt>
<wgt id='1356'> +9.9287483e+01 </wgt>
<wgt id='1357'> +1.0374768e+02 </wgt>
<wgt id='1358'> +1.0796505e+02 </wgt>
<wgt id='1359'> +1.1393734e+02 </wgt>
<wgt id='1360'> +1.1830340e+02 </wgt>
<wgt id='1361'> +1.2397542e+02 </wgt>
<wgt id='1362'> +1.2840143e+02 </wgt>
<wgt id='1363'> +1.1753685e+02 </wgt>
<wgt id='1364'> +1.1767397e+02 </wgt>
<wgt id='1365'> +1.1749041e+02 </wgt>
<wgt id='1366'> +1.1768425e+02 </wgt>
<wgt id='1367'> +1.1777529e+02 </wgt>
<wgt id='1368'> +1.1789967e+02 </wgt>
<wgt id='1369'> +1.1752037e+02 </wgt>
<wgt id='1370'> +1.1795010e+02 </wgt>
<wgt id='1371'> +1.1743401e+02 </wgt>
<wgt id='1372'> +1.1793151e+02 </wgt>
<wgt id='1373'> +1.1730339e+02 </wgt>
<wgt id='1374'> +1.1733740e+02 </wgt>
<wgt id='1375'> +1.1784006e+02 </wgt>
<wgt id='1376'> +1.1749799e+02 </wgt>
<wgt id='1377'> +1.1784268e+02 </wgt>
<wgt id='1378'> +1.1734141e+02 </wgt>
<wgt id='1379'> +1.1762303e+02 </wgt>
<wgt id='1380'> +1.1783283e+02 </wgt>
<wgt id='1381'> +1.1793008e+02 </wgt>
<wgt id='1382'> +1.1708396e+02 </wgt>
<wgt id='1383'> +1.1704981e+02 </wgt>
<wgt id='1384'> +1.1693363e+02 </wgt>
<wgt id='1385'> +1.1750188e+02 </wgt>
<wgt id='1386'> +1.1716463e+02 </wgt>
<wgt id='1387'> +1.1697742e+02 </wgt>
<wgt id='1388'> +1.1755507e+02 </wgt>
<wgt id='1389'> +1.1791671e+02 </wgt>
<wgt id='1390'> +1.1756860e+02 </wgt>
<wgt id='1391'> +1.1690760e+02 </wgt>
<wgt id='1392'> +1.1731624e+02 </wgt>
<wgt id='1393'> +1.1781539e+02 </wgt>
<wgt id='1394'> +1.1766887e+02 </wgt>
<wgt id='1395'> +1.1776687e+02 </wgt>
<wgt id='1396'> +1.1779418e+02 </wgt>
<wgt id='1397'> +1.1765948e+02 </wgt>
<wgt id='1398'> +1.1774106e+02 </wgt>
<wgt id='1399'> +1.1758720e+02 </wgt>
<wgt id='1400'> +1.1754264e+02 </wgt>
<wgt id='1401'> +1.1754790e+02 </wgt>
<wgt id='1402'> +1.1743956e+02 </wgt>
<wgt id='1403'> +1.1757353e+02 </wgt>
<wgt id='1404'> +1.1760635e+02 </wgt>
<wgt id='1405'> +1.1737789e+02 </wgt>
<wgt id='1406'> +1.1739669e+02 </wgt>
<wgt id='1407'> +1.1756592e+02 </wgt>
<wgt id='1408'> +1.1764548e+02 </wgt>
<wgt id='1409'> +1.1760863e+02 </wgt>
<wgt id='1410'> +1.1749893e+02 </wgt>
<wgt id='1411'> +1.1763436e+02 </wgt>
<wgt id='1412'> +1.1750995e+02 </wgt>
<wgt id='1413'> +1.1754421e+02 </wgt>
<wgt id='1414'> +1.1769114e+02 </wgt>
<wgt id='1415'> +1.1750183e+02 </wgt>
<wgt id='1416'> +1.1749941e+02 </wgt>
<wgt id='1417'> +1.1750598e+02 </wgt>
<wgt id='1418'> +1.1751788e+02 </wgt>
<wgt id='1419'> +1.1756419e+02 </wgt>
<wgt id='1420'> +1.1747548e+02 </wgt>
<wgt id='1421'> +1.1749215e+02 </wgt>
<wgt id='1422'> +1.1753727e+02 </wgt>
<wgt id='1423'> +1.1755579e+02 </wgt>
<wgt id='1424'> +1.1757083e+02 </wgt>
<wgt id='1425'> +1.1754413e+02 </wgt>
<wgt id='1426'> +1.1757853e+02 </wgt>
<wgt id='1427'> +1.1752085e+02 </wgt>
<wgt id='1428'> +1.1755761e+02 </wgt>
<wgt id='1429'> +1.1755733e+02 </wgt>
<wgt id='1430'> +1.1749795e+02 </wgt>
<wgt id='1431'> +1.1753336e+02 </wgt>
<wgt id='1432'> +1.1749023e+02 </wgt>
<wgt id='1433'> +1.1751454e+02 </wgt>
<wgt id='1434'> +1.1754162e+02 </wgt>
<wgt id='1435'> +1.1756516e+02 </wgt>
<wgt id='1436'> +1.1752968e+02 </wgt>
<wgt id='1437'> +1.1757393e+02 </wgt>
<wgt id='1438'> +1.1755651e+02 </wgt>
<wgt id='1439'> +1.1753077e+02 </wgt>
<wgt id='1440'> +1.1753456e+02 </wgt>
<wgt id='1441'> +1.1756449e+02 </wgt>
<wgt id='1442'> +1.1752112e+02 </wgt>
<wgt id='1443'> +1.1751859e+02 </wgt>
<wgt id='1444'> +1.1752822e+02 </wgt>
<wgt id='1445'> +1.1751921e+02 </wgt>
<wgt id='1446'> +1.1754050e+02 </wgt>
<wgt id='1447'> +1.1752189e+02 </wgt>
<wgt id='1448'> +1.1755324e+02 </wgt>
<wgt id='1449'> +1.1754892e+02 </wgt>
<wgt id='1450'> +1.1753566e+02 </wgt>
<wgt id='1451'> +1.1752425e+02 </wgt>
<wgt id='1452'> +1.1753792e+02 </wgt>
<wgt id='1453'> +1.1755229e+02 </wgt>
<wgt id='1454'> +1.1753370e+02 </wgt>
<wgt id='1455'> +1.1752510e+02 </wgt>
<wgt id='1456'> +1.1753814e+02 </wgt>
<wgt id='1457'> +1.1755761e+02 </wgt>
<wgt id='1458'> +1.1754233e+02 </wgt>
<wgt id='1459'> +1.1751571e+02 </wgt>
<wgt id='1460'> +1.1751695e+02 </wgt>
<wgt id='1461'> +1.1751828e+02 </wgt>
<wgt id='1462'> +1.1754756e+02 </wgt>
<wgt id='1463'> +1.1754858e+02 </wgt>
<wgt id='1464'> +1.1313389e+02 </wgt>
<wgt id='1465'> +1.2206851e+02 </wgt>
<wgt id='1466'> +1.1274595e+02 </wgt>
<wgt id='1467'> +1.1273803e+02 </wgt>
<wgt id='1468'> +1.1292755e+02 </wgt>
<wgt id='1469'> +1.1248764e+02 </wgt>
<wgt id='1470'> +1.1236240e+02 </wgt>
<wgt id='1471'> +1.0992616e+02 </wgt>
<wgt id='1472'> +1.1104685e+02 </wgt>
<wgt id='1473'> +1.1186326e+02 </wgt>
<wgt id='1474'> +1.1242372e+02 </wgt>
<wgt id='1475'> +1.1286852e+02 </wgt>
<wgt id='1476'> +1.1228436e+02 </wgt>
<wgt id='1477'> +1.1280839e+02 </wgt>
<wgt id='1478'> +1.1284731e+02 </wgt>
<wgt id='1479'> +1.1245682e+02 </wgt>
<wgt id='1480'> +1.1465388e+02 </wgt>
<wgt id='1481'> +1.1317556e+02 </wgt>
<wgt id='1482'> +1.1151492e+02 </wgt>
<wgt id='1483'> +1.1110423e+02 </wgt>
<wgt id='1484'> +1.1447075e+02 </wgt>
<wgt id='1485'> +1.1449202e+02 </wgt>
<wgt id='1486'> +1.1111913e+02 </wgt>
<wgt id='1487'> +1.1277884e+02 </wgt>
<wgt id='1488'> +1.1272183e+02 </wgt>
<wgt id='1489'> +1.1231990e+02 </wgt>
<wgt id='1490'> +1.1319426e+02 </wgt>
<wgt id='1491'> +1.1329930e+02 </wgt>
<wgt id='1492'> +1.1228611e+02 </wgt>
<wgt id='1493'> +1.1349405e+02 </wgt>
<wgt id='1494'> +1.1148079e+02 </wgt>
<wgt id='1495'> +1.1130085e+02 </wgt>
<wgt id='1496'> +1.1364038e+02 </wgt>
<wgt id='1497'> +1.1174074e+02 </wgt>
<wgt id='1498'> +1.1423058e+02 </wgt>
<wgt id='1499'> +1.1263741e+02 </wgt>
<wgt id='1500'> +1.1280184e+02 </wgt>
<wgt id='1501'> +1.1349134e+02 </wgt>
<wgt id='1502'> +1.1198914e+02 </wgt>
<wgt id='1503'> +1.1008805e+02 </wgt>
<wgt id='1504'> +1.1569527e+02 </wgt>
<wgt id='1505'> +1.1554296e+02 </wgt>
<wgt id='1506'> +1.1122161e+02 </wgt>
<wgt id='1507'> +1.1257031e+02 </wgt>
<wgt id='1508'> +1.1260240e+02 </wgt>
<wgt id='1509'> +1.1344516e+02 </wgt>
<wgt id='1510'> +1.1154741e+02 </wgt>
<wgt id='1511'> +1.1641194e+02 </wgt>
<wgt id='1512'> +1.0904334e+02 </wgt>
<wgt id='1513'> +1.1459964e+02 </wgt>
<wgt id='1514'> +1.1110598e+02 </wgt>
<wgt id='1515'> +1.1299401e+02 </wgt>
<wgt id='1516'> +1.1251412e+02 </wgt>
<wgt id='1517'> +1.1274475e+02 </wgt>
<wgt id='1518'> +1.1277391e+02 </wgt>
<wgt id='1519'> +1.1178863e+02 </wgt>
<wgt id='1520'> +1.1286882e+02 </wgt>
<wgt id='1521'> +1.1178071e+02 </wgt>
<wgt id='1522'> +1.1470063e+02 </wgt>
<wgt id='1523'> +1.0809774e+02 </wgt>
<wgt id='1524'> +1.1733820e+02 </wgt>
<wgt id='1525'> +1.1137300e+02 </wgt>
<wgt id='1526'> +1.1136408e+02 </wgt>
<wgt id='1527'> +1.1147756e+02 </wgt>
<wgt id='1528'> +1.1132693e+02 </wgt>
<wgt id='1529'> +1.0949916e+02 </wgt>
<wgt id='1530'> +1.1103025e+02 </wgt>
<wgt id='1531'> +1.1172406e+02 </wgt>
<wgt id='1532'> +1.1283700e+02 </wgt>
<wgt id='1533'> +1.0949013e+02 </wgt>
<wgt id='1534'> +1.1071737e+02 </wgt>
<wgt id='1535'> +1.1112281e+02 </wgt>
<wgt id='1536'> +1.1414711e+02 </wgt>
<wgt id='1537'> +1.0944284e+02 </wgt>
<wgt id='1538'> +1.0986280e+02 </wgt>
<wgt id='1539'> +1.1231019e+02 </wgt>
<wgt id='1540'> +1.1373967e+02 </wgt>
<wgt id='1541'> +1.0974090e+02 </wgt>
<wgt id='1542'> +1.0932931e+02 </wgt>
<wgt id='1543'> +1.1378936e+02 </wgt>
<wgt id='1544'> +1.1301982e+02 </wgt>
<wgt id='1545'> +1.0965154e+02 </wgt>
<wgt id='1546'> +1.1191371e+02 </wgt>
<wgt id='1547'> +1.1031927e+02 </wgt>
<wgt id='1548'> +1.1080472e+02 </wgt>
<wgt id='1549'> +1.1194671e+02 </wgt>
<wgt id='1550'> +1.1297034e+02 </wgt>
<wgt id='1551'> +1.0979934e+02 </wgt>
<wgt id='1552'> +1.1135507e+02 </wgt>
<wgt id='1553'> +1.1141461e+02 </wgt>
<wgt id='1554'> +1.1090437e+02 </wgt>
<wgt id='1555'> +1.1154426e+02 </wgt>
<wgt id='1556'> +1.1185704e+02 </wgt>
<wgt id='1557'> +1.1074577e+02 </wgt>
<wgt id='1558'> +1.1045834e+02 </wgt>
<wgt id='1559'> +1.1338234e+02 </wgt>
<wgt id='1560'> +1.1079688e+02 </wgt>
<wgt id='1561'> +1.1198444e+02 </wgt>
<wgt id='1562'> +1.1178684e+02 </wgt>
<wgt id='1563'> +1.1077726e+02 </wgt>
<wgt id='1564'> +1.1154838e+02 </wgt>
<wgt id='1565'> +1.1135449e+02 </wgt>
<wgt id='1566'> +1.1148235e+02 </wgt>
<wgt id='1567'> +1.1140890e+02 </wgt>
<wgt id='1568'> +1.1213442e+02 </wgt>
<wgt id='1569'> +1.1174990e+02 </wgt>
<wgt id='1570'> +1.0985304e+02 </wgt>
<wgt id='1571'> +1.1186663e+02 </wgt>
<wgt id='1572'> +1.1064595e+02 </wgt>
<wgt id='1573'> +1.0951898e+02 </wgt>
<wgt id='1574'> +1.0927679e+02 </wgt>
<wgt id='1575'> +1.1015345e+02 </wgt>
<wgt id='1576'> +1.1150577e+02 </wgt>
<wgt id='1577'> +1.1144264e+02 </wgt>
<wgt id='1578'> +1.0865675e+02 </wgt>
<wgt id='1579'> +1.1299362e+02 </wgt>
<wgt id='1580'> +1.1022240e+02 </wgt>
<wgt id='1581'> +1.1330021e+02 </wgt>
<wgt id='1582'> +1.0693475e+02 </wgt>
<wgt id='1583'> +1.1586171e+02 </wgt>
<wgt id='1584'> +9.7150296e+01 </wgt>
<wgt id='1585'> +1.1504483e+02 </wgt>
<wgt id='1586'> +1.1509306e+02 </wgt>
<wgt id='1587'> +1.1499157e+02 </wgt>
<wgt id='1588'> +1.1516927e+02 </wgt>
<wgt id='1589'> +1.1495898e+02 </wgt>
<wgt id='1590'> +1.1569109e+02 </wgt>
<wgt id='1591'> +1.1444215e+02 </wgt>
<wgt id='1592'> +1.1454009e+02 </wgt>
<wgt id='1593'> +1.1560877e+02 </wgt>
<wgt id='1594'> +1.1518921e+02 </wgt>
<wgt id='1595'> +1.1490042e+02 </wgt>
<wgt id='1596'> +1.1518152e+02 </wgt>
<wgt id='1597'> +1.1473700e+02 </wgt>
<wgt id='1598'> +1.1498797e+02 </wgt>
<wgt id='1599'> +1.1514028e+02 </wgt>
<wgt id='1600'> +1.1480063e+02 </wgt>
<wgt id='1601'> +1.1518168e+02 </wgt>
<wgt id='1602'> +1.1454815e+02 </wgt>
<wgt id='1603'> +1.1562809e+02 </wgt>
<wgt id='1604'> +1.1516854e+02 </wgt>
<wgt id='1605'> +1.1493527e+02 </wgt>
<wgt id='1606'> +1.1480057e+02 </wgt>
<wgt id='1607'> +1.1536253e+02 </wgt>
<wgt id='1608'> +1.1433427e+02 </wgt>
<wgt id='1609'> +1.1552588e+02 </wgt>
<wgt id='1610'> +1.1454828e+02 </wgt>
<wgt id='1611'> +1.1556199e+02 </wgt>
<wgt id='1612'> +1.1517036e+02 </wgt>
<wgt id='1613'> +1.1500155e+02 </wgt>
<wgt id='1614'> +1.1500821e+02 </wgt>
<wgt id='1615'> +1.1509900e+02 </wgt>
<wgt id='1616'> +1.1416407e+02 </wgt>
<wgt id='1617'> +1.1601994e+02 </wgt>
<wgt id='1618'> +1.1551308e+02 </wgt>
<wgt id='1619'> +1.1458105e+02 </wgt>
<wgt id='1620'> +1.1515739e+02 </wgt>
<wgt id='1621'> +1.1479552e+02 </wgt>
<wgt id='1622'> +1.1516977e+02 </wgt>
<wgt id='1623'> +1.1500303e+02 </wgt>
<wgt id='1624'> +1.1481206e+02 </wgt>
<wgt id='1625'> +1.1530318e+02 </wgt>
<wgt id='1626'> +1.1426336e+02 </wgt>
<wgt id='1627'> +1.1592687e+02 </wgt>
<wgt id='1628'> +1.1611200e+02 </wgt>
<wgt id='1629'> +1.1443713e+02 </wgt>
<wgt id='1630'> +1.1492956e+02 </wgt>
<wgt id='1631'> +1.1532655e+02 </wgt>
<wgt id='1632'> +1.1648579e+02 </wgt>
<wgt id='1633'> +1.1256099e+02 </wgt>
<wgt id='1634'> +1.1573297e+02 </wgt>
<wgt id='1635'> +1.1465425e+02 </wgt>
<wgt id='1636'> +1.1310873e+02 </wgt>
<wgt id='1637'> +1.1304448e+02 </wgt>
<wgt id='1638'> +1.1319365e+02 </wgt>
<wgt id='1639'> +1.1348682e+02 </wgt>
<wgt id='1640'> +1.1273432e+02 </wgt>
<wgt id='1641'> +1.1346577e+02 </wgt>
<wgt id='1642'> +1.1296656e+02 </wgt>
<wgt id='1643'> +1.1291731e+02 </wgt>
<wgt id='1644'> +1.1330288e+02 </wgt>
<wgt id='1645'> +1.1320728e+02 </wgt>
<wgt id='1646'> +1.1301955e+02 </wgt>
<wgt id='1647'> +1.1264964e+02 </wgt>
<wgt id='1648'> +1.1330896e+02 </wgt>
<wgt id='1649'> +1.1310789e+02 </wgt>
<wgt id='1650'> +1.1311488e+02 </wgt>
<wgt id='1651'> +1.1302419e+02 </wgt>
<wgt id='1652'> +1.1320275e+02 </wgt>
<wgt id='1653'> +1.1331745e+02 </wgt>
<wgt id='1654'> +1.1299304e+02 </wgt>
<wgt id='1655'> +1.1309081e+02 </wgt>
<wgt id='1656'> +1.1313274e+02 </wgt>
<wgt id='1657'> +1.1289534e+02 </wgt>
<wgt id='1658'> +1.1325654e+02 </wgt>
<wgt id='1659'> +1.1444459e+02 </wgt>
<wgt id='1660'> +1.1185816e+02 </wgt>
<wgt id='1661'> +1.1354273e+02 </wgt>
<wgt id='1662'> +1.1203517e+02 </wgt>
<wgt id='1663'> +1.1331890e+02 </wgt>
<wgt id='1664'> +1.1288325e+02 </wgt>
<wgt id='1665'> +1.1313337e+02 </wgt>
<wgt id='1666'> +1.1313581e+02 </wgt>
<wgt id='1667'> +1.1272004e+02 </wgt>
<wgt id='1668'> +1.1391312e+02 </wgt>
<wgt id='1669'> +1.1316336e+02 </wgt>
<wgt id='1670'> +1.1299584e+02 </wgt>
<wgt id='1671'> +1.1269741e+02 </wgt>
<wgt id='1672'> +1.1328373e+02 </wgt>
<wgt id='1673'> +1.1309490e+02 </wgt>
<wgt id='1674'> +1.1307823e+02 </wgt>
<wgt id='1675'> +1.1278979e+02 </wgt>
<wgt id='1676'> +1.1335369e+02 </wgt>
<wgt id='1677'> +1.1305628e+02 </wgt>
<wgt id='1678'> +1.1305920e+02 </wgt>
<wgt id='1679'> +1.1322465e+02 </wgt>
<wgt id='1680'> +1.1244245e+02 </wgt>
<wgt id='1681'> +1.1131589e+02 </wgt>
<wgt id='1682'> +1.1417983e+02 </wgt>
<wgt id='1683'> +1.1374878e+02 </wgt>
<wgt id='1684'> +1.1280255e+02 </wgt>
<wgt id='1685'> +1.1226200e+02 </wgt>
<wgt id='1686'> +1.1348961e+02 </wgt>
<wgt id='1687'> +1.5076023e+02 </wgt>
<wgt id='1688'> +1.1283746e+02 </wgt>
<wgt id='1689'> +1.1281528e+02 </wgt>
<wgt id='1690'> +1.1287348e+02 </wgt>
<wgt id='1691'> +1.1284193e+02 </wgt>
<wgt id='1692'> +1.1283441e+02 </wgt>
<wgt id='1693'> +1.1261007e+02 </wgt>
<wgt id='1694'> +1.1293378e+02 </wgt>
<wgt id='1695'> +1.1302773e+02 </wgt>
<wgt id='1696'> +1.1310711e+02 </wgt>
<wgt id='1697'> +1.1334495e+02 </wgt>
<wgt id='1698'> +1.1271802e+02 </wgt>
<wgt id='1699'> +1.1284769e+02 </wgt>
<wgt id='1700'> +1.1241828e+02 </wgt>
<wgt id='1701'> +1.1260947e+02 </wgt>
<wgt id='1702'> +1.1307931e+02 </wgt>
<wgt id='1703'> +1.1276917e+02 </wgt>
<wgt id='1704'> +1.1293183e+02 </wgt>
<wgt id='1705'> +1.1284754e+02 </wgt>
<wgt id='1706'> +1.1308144e+02 </wgt>
<wgt id='1707'> +1.1299442e+02 </wgt>
<wgt id='1708'> +1.1262698e+02 </wgt>
<wgt id='1709'> +1.1277722e+02 </wgt>
<wgt id='1710'> +1.1243813e+02 </wgt>
<wgt id='1711'> +1.1281528e+02 </wgt>
<wgt id='1712'> +1.1265478e+02 </wgt>
<wgt id='1713'> +1.1296668e+02 </wgt>
<wgt id='1714'> +1.1304350e+02 </wgt>
<wgt id='1715'> +1.1284008e+02 </wgt>
<wgt id='1716'> +1.1293760e+02 </wgt>
<wgt id='1717'> +1.1219562e+02 </wgt>
<wgt id='1718'> +1.1504719e+02 </wgt>
<wgt id='1719'> +1.1453061e+02 </wgt>
<wgt id='1720'> +1.1626068e+02 </wgt>
<wgt id='1721'> +1.1556063e+02 </wgt>
<wgt id='1722'> +1.1457977e+02 </wgt>
<wgt id='1723'> +1.1458044e+02 </wgt>
<wgt id='1724'> +1.1573942e+02 </wgt>
<wgt id='1725'> +1.1378934e+02 </wgt>
<wgt id='1726'> +1.1361056e+02 </wgt>
<wgt id='1727'> +1.1563562e+02 </wgt>
<wgt id='1728'> +1.1696977e+02 </wgt>
<wgt id='1729'> +1.1496922e+02 </wgt>
<wgt id='1730'> +1.1408718e+02 </wgt>
<wgt id='1731'> +1.1526840e+02 </wgt>
<wgt id='1732'> +1.1311001e+02 </wgt>
<wgt id='1733'> +1.1569883e+02 </wgt>
<wgt id='1734'> +1.1493899e+02 </wgt>
<wgt id='1735'> +1.1438504e+02 </wgt>
<wgt id='1736'> +1.1456728e+02 </wgt>
<wgt id='1737'> +1.1457332e+02 </wgt>
<wgt id='1738'> +1.1475954e+02 </wgt>
<wgt id='1739'> +1.1455537e+02 </wgt>
<wgt id='1740'> +1.1536918e+02 </wgt>
<wgt id='1741'> +1.1464431e+02 </wgt>
<wgt id='1742'> +1.1501811e+02 </wgt>
<wgt id='1743'> +1.1509536e+02 </wgt>
<wgt id='1744'> +1.1494472e+02 </wgt>
<wgt id='1745'> +1.1498834e+02 </wgt>
<wgt id='1746'> +1.1487973e+02 </wgt>
<wgt id='1747'> +1.1490352e+02 </wgt>
<wgt id='1748'> +1.1511013e+02 </wgt>
<wgt id='1749'> +1.1501418e+02 </wgt>
<wgt id='1750'> +1.1503675e+02 </wgt>
<wgt id='1751'> +1.1485920e+02 </wgt>
<wgt id='1752'> +1.1510148e+02 </wgt>
<wgt id='1753'> +1.1528996e+02 </wgt>
<wgt id='1754'> +1.1499088e+02 </wgt>
<wgt id='1755'> +1.1506540e+02 </wgt>
<wgt id='1756'> +1.1501729e+02 </wgt>
<wgt id='1757'> +1.1510343e+02 </wgt>
<wgt id='1758'> +1.1512691e+02 </wgt>
<wgt id='1759'> +1.1514417e+02 </wgt>
<wgt id='1760'> +1.1513511e+02 </wgt>
<wgt id='1761'> +1.1492727e+02 </wgt>
<wgt id='1762'> +1.1520269e+02 </wgt>
<wgt id='1763'> +1.1511364e+02 </wgt>
<wgt id='1764'> +1.1515992e+02 </wgt>
<wgt id='1765'> +1.1495642e+02 </wgt>
<wgt id='1766'> +1.1498395e+02 </wgt>
<wgt id='1767'> +1.1506322e+02 </wgt>
<wgt id='1768'> +1.1497655e+02 </wgt>
<wgt id='1769'> +1.1495349e+02 </wgt>
<wgt id='1770'> +1.1499411e+02 </wgt>
<wgt id='1771'> +1.1491906e+02 </wgt>
<wgt id='1772'> +1.1497087e+02 </wgt>
<wgt id='1773'> +1.1505522e+02 </wgt>
<wgt id='1774'> +1.1501947e+02 </wgt>
<wgt id='1775'> +1.1505921e+02 </wgt>
<wgt id='1776'> +1.1518808e+02 </wgt>
<wgt id='1777'> +1.1500847e+02 </wgt>
<wgt id='1778'> +1.1490140e+02 </wgt>
<wgt id='1779'> +1.1508323e+02 </wgt>
<wgt id='1780'> +1.1497877e+02 </wgt>
<wgt id='1781'> +1.1504633e+02 </wgt>
<wgt id='1782'> +1.1500711e+02 </wgt>
<wgt id='1783'> +1.1507114e+02 </wgt>
<wgt id='1784'> +1.1508656e+02 </wgt>
<wgt id='1785'> +1.1504062e+02 </wgt>
<wgt id='1786'> +1.1511855e+02 </wgt>
<wgt id='1787'> +1.1509296e+02 </wgt>
<wgt id='1788'> +1.1500758e+02 </wgt>
<wgt id='1789'> +1.1496935e+02 </wgt>
<wgt id='1790'> +1.1499487e+02 </wgt>
<wgt id='1791'> +1.1500133e+02 </wgt>
<wgt id='1792'> +1.1500299e+02 </wgt>
<wgt id='1793'> +1.1502705e+02 </wgt>
<wgt id='1794'> +1.1505374e+02 </wgt>
<wgt id='1795'> +1.1499880e+02 </wgt>
<wgt id='1796'> +1.1503224e+02 </wgt>
<wgt id='1797'> +1.1513044e+02 </wgt>
<wgt id='1798'> +1.1504552e+02 </wgt>
<wgt id='1799'> +1.1509481e+02 </wgt>
<wgt id='1800'> +1.1498730e+02 </wgt>
<wgt id='1801'> +1.1507645e+02 </wgt>
<wgt id='1802'> +1.1510983e+02 </wgt>
<wgt id='1803'> +1.1507217e+02 </wgt>
<wgt id='1804'> +1.1514818e+02 </wgt>
<wgt id='1805'> +1.1505627e+02 </wgt>
<wgt id='1806'> +1.1504290e+02 </wgt>
<wgt id='1807'> +1.1504640e+02 </wgt>
<wgt id='1808'> +1.1505068e+02 </wgt>
<wgt id='1809'> +1.1500002e+02 </wgt>
<wgt id='1810'> +1.1503849e+02 </wgt>
<wgt id='1811'> +1.1501908e+02 </wgt>
<wgt id='1812'> +1.1503461e+02 </wgt>
<wgt id='1813'> +1.1503879e+02 </wgt>
<wgt id='1814'> +1.1503471e+02 </wgt>
<wgt id='1815'> +1.1506878e+02 </wgt>
<wgt id='1816'> +1.1507027e+02 </wgt>
<wgt id='1817'> +1.1505634e+02 </wgt>
<wgt id='1818'> +1.1504805e+02 </wgt>
<wgt id='1819'> +1.1220439e+02 </wgt>
<wgt id='1820'> +1.1776894e+02 </wgt>
<wgt id='1821'> +1.1378666e+02 </wgt>
<wgt id='1822'> +1.1367535e+02 </wgt>
<wgt id='1823'> +1.1432834e+02 </wgt>
<wgt id='1824'> +1.1292384e+02 </wgt>
<wgt id='1825'> +1.1373237e+02 </wgt>
<wgt id='1826'> +1.1454479e+02 </wgt>
<wgt id='1827'> +1.1337188e+02 </wgt>
<wgt id='1828'> +1.1284145e+02 </wgt>
<wgt id='1829'> +1.1349161e+02 </wgt>
<wgt id='1830'> +1.1381932e+02 </wgt>
<wgt id='1831'> +1.1296642e+02 </wgt>
<wgt id='1832'> +1.1514770e+02 </wgt>
<wgt id='1833'> +1.1428793e+02 </wgt>
<wgt id='1834'> +1.1237212e+02 </wgt>
<wgt id='1835'> +1.1346997e+02 </wgt>
<wgt id='1836'> +1.1366983e+02 </wgt>
<wgt id='1837'> +1.1548174e+02 </wgt>
<wgt id='1838'> +1.1315207e+02 </wgt>
<wgt id='1839'> +1.1356515e+02 </wgt>
<wgt id='1840'> +1.1379309e+02 </wgt>
<wgt id='1841'> +1.1453833e+02 </wgt>
<wgt id='1842'> +1.1358801e+02 </wgt>
<wgt id='1843'> +1.1404733e+02 </wgt>
<wgt id='1844'> +1.1321504e+02 </wgt>
<wgt id='1845'> +1.1357635e+02 </wgt>
<wgt id='1846'> +1.1392464e+02 </wgt>
<wgt id='1847'> +1.1377893e+02 </wgt>
<wgt id='1848'> +1.1364119e+02 </wgt>
<wgt id='1849'> +1.1386796e+02 </wgt>
<wgt id='1850'> +1.1395221e+02 </wgt>
<wgt id='1851'> +1.1382351e+02 </wgt>
<wgt id='1852'> +1.1367391e+02 </wgt>
<wgt id='1853'> +1.1388424e+02 </wgt>
<wgt id='1854'> +1.1389763e+02 </wgt>
<wgt id='1855'> +1.1379286e+02 </wgt>
<wgt id='1856'> +1.1391110e+02 </wgt>
<wgt id='1857'> +1.1381254e+02 </wgt>
<wgt id='1858'> +1.1388211e+02 </wgt>
<wgt id='1859'> +1.1384816e+02 </wgt>
<wgt id='1860'> +1.1378704e+02 </wgt>
<wgt id='1861'> +1.1370685e+02 </wgt>
<wgt id='1862'> +1.1378208e+02 </wgt>
<wgt id='1863'> +1.1379899e+02 </wgt>
<wgt id='1864'> +1.1366526e+02 </wgt>
<wgt id='1865'> +1.1382445e+02 </wgt>
<wgt id='1866'> +1.1381813e+02 </wgt>
<wgt id='1867'> +1.1363841e+02 </wgt>
<wgt id='1868'> +1.1379480e+02 </wgt>
<wgt id='1869'> +1.1383931e+02 </wgt>
<wgt id='1870'> +1.1371856e+02 </wgt>
<wgt id='1871'> +1.1380526e+02 </wgt>
<wgt id='1872'> +1.1385482e+02 </wgt>
<wgt id='1873'> +1.1384513e+02 </wgt>
<wgt id='1874'> +1.1378157e+02 </wgt>
<wgt id='1875'> +1.1373055e+02 </wgt>
<wgt id='1876'> +1.1374481e+02 </wgt>
<wgt id='1877'> +1.1388907e+02 </wgt>
<wgt id='1878'> +1.1380023e+02 </wgt>
<wgt id='1879'> +1.1365753e+02 </wgt>
<wgt id='1880'> +1.1372289e+02 </wgt>
<wgt id='1881'> +1.1373299e+02 </wgt>
<wgt id='1882'> +1.1380023e+02 </wgt>
<wgt id='1883'> +1.1380683e+02 </wgt>
<wgt id='1884'> +1.1383315e+02 </wgt>
<wgt id='1885'> +1.1377078e+02 </wgt>
<wgt id='1886'> +1.1376999e+02 </wgt>
<wgt id='1887'> +1.1379481e+02 </wgt>
<wgt id='1888'> +1.1382859e+02 </wgt>
<wgt id='1889'> +1.1382468e+02 </wgt>
<wgt id='1890'> +1.1386758e+02 </wgt>
<wgt id='1891'> +1.1376413e+02 </wgt>
<wgt id='1892'> +1.1386829e+02 </wgt>
<wgt id='1893'> +1.1386994e+02 </wgt>
<wgt id='1894'> +1.1375593e+02 </wgt>
<wgt id='1895'> +1.1380561e+02 </wgt>
<wgt id='1896'> +1.1378290e+02 </wgt>
<wgt id='1897'> +1.1376971e+02 </wgt>
<wgt id='1898'> +1.1381125e+02 </wgt>
<wgt id='1899'> +1.1378618e+02 </wgt>
<wgt id='1900'> +1.1376493e+02 </wgt>
<wgt id='1901'> +1.1389888e+02 </wgt>
<wgt id='1902'> +1.1377542e+02 </wgt>
<wgt id='1903'> +1.1382335e+02 </wgt>
<wgt id='1904'> +1.1374387e+02 </wgt>
<wgt id='1905'> +1.1373857e+02 </wgt>
<wgt id='1906'> +1.1373486e+02 </wgt>
<wgt id='1907'> +1.1381402e+02 </wgt>
<wgt id='1908'> +1.1368280e+02 </wgt>
<wgt id='1909'> +1.1374713e+02 </wgt>
<wgt id='1910'> +1.1374654e+02 </wgt>
<wgt id='1911'> +1.1380548e+02 </wgt>
<wgt id='1912'> +1.1376114e+02 </wgt>
<wgt id='1913'> +1.1377540e+02 </wgt>
<wgt id='1914'> +1.1376217e+02 </wgt>
<wgt id='1915'> +1.1376583e+02 </wgt>
<wgt id='1916'> +1.1379811e+02 </wgt>
<wgt id='1917'> +1.1376322e+02 </wgt>
<wgt id='1918'> +1.1379723e+02 </wgt>
<wgt id='1919'> +1.1377829e+02 </wgt>
<wgt id='1920'> +1.1375832e+02 </wgt>
<wgt id='1921'> +1.1378683e+02 </wgt>
<wgt id='1922'> +1.1110663e+02 </wgt>
<wgt id='1923'> +1.1642260e+02 </wgt>
<wgt id='1924'> +1.1505746e+02 </wgt>
<wgt id='1925'> +1.1588233e+02 </wgt>
<wgt id='1926'> +1.1396313e+02 </wgt>
<wgt id='1927'> +1.1497737e+02 </wgt>
<wgt id='1928'> +1.1288716e+02 </wgt>
<wgt id='1929'> +1.1699136e+02 </wgt>
<wgt id='1930'> +1.1450152e+02 </wgt>
<wgt id='1931'> +1.1500556e+02 </wgt>
<wgt id='1932'> +1.1542429e+02 </wgt>
<wgt id='1933'> +1.1455408e+02 </wgt>
<wgt id='1934'> +1.1546435e+02 </wgt>
<wgt id='1935'> +1.1441665e+02 </wgt>
<wgt id='1936'> +1.1514607e+02 </wgt>
<wgt id='1937'> +1.1522335e+02 </wgt>
<wgt id='1938'> +1.1479825e+02 </wgt>
<wgt id='1939'> +1.1494892e+02 </wgt>
<wgt id='1940'> +1.1450594e+02 </wgt>
<wgt id='1941'> +1.1620836e+02 </wgt>
<wgt id='1942'> +1.1523141e+02 </wgt>
<wgt id='1943'> +1.1487896e+02 </wgt>
<wgt id='1944'> +1.1472945e+02 </wgt>
<wgt id='1945'> +1.1493794e+02 </wgt>
<wgt id='1946'> +1.1494100e+02 </wgt>
<wgt id='1947'> +1.1509738e+02 </wgt>
<wgt id='1948'> +1.1487551e+02 </wgt>
<wgt id='1949'> +1.1493932e+02 </wgt>
<wgt id='1950'> +1.1556245e+02 </wgt>
<wgt id='1951'> +1.1540093e+02 </wgt>
<wgt id='1952'> +1.1655247e+02 </wgt>
<wgt id='1953'> +1.1512705e+02 </wgt>
<wgt id='1954'> +1.1501403e+02 </wgt>
<wgt id='1955'> +1.1220439e+02 </wgt>
<wgt id='1956'> +1.1776894e+02 </wgt>
<wgt id='1957'> +1.1378881e+02 </wgt>
<wgt id='1958'> +1.1190335e+02 </wgt>
<wgt id='1959'> +1.1439965e+02 </wgt>
<wgt id='1960'> +1.1370878e+02 </wgt>
<wgt id='1961'> +1.1452576e+02 </wgt>
<wgt id='1962'> +1.1300344e+02 </wgt>
<wgt id='1963'> +1.1387769e+02 </wgt>
<wgt id='1964'> +1.1351570e+02 </wgt>
<wgt id='1965'> +1.1370046e+02 </wgt>
<wgt id='1966'> +1.1335024e+02 </wgt>
<wgt id='1967'> +1.1283883e+02 </wgt>
<wgt id='1968'> +1.1336351e+02 </wgt>
<wgt id='1969'> +1.1388241e+02 </wgt>
<wgt id='1970'> +1.1404916e+02 </wgt>
<wgt id='1971'> +1.1351771e+02 </wgt>
<wgt id='1972'> +1.1369713e+02 </wgt>
<wgt id='1973'> +1.1368200e+02 </wgt>
<wgt id='1974'> +1.1459404e+02 </wgt>
<wgt id='1975'> +1.1367552e+02 </wgt>
<wgt id='1976'> +1.1368126e+02 </wgt>
<wgt id='1977'> +1.1424635e+02 </wgt>
<wgt id='1978'> +1.1400077e+02 </wgt>
<wgt id='1979'> +1.1572039e+02 </wgt>
<wgt id='1980'> +1.1388211e+02 </wgt>
<wgt id='1981'> +1.1394717e+02 </wgt>
<wgt id='1982'> +1.1388781e+02 </wgt>
<wgt id='1983'> +1.1380302e+02 </wgt>
<wgt id='1984'> +1.1376697e+02 </wgt>
<wgt id='1985'> +1.1393501e+02 </wgt>
<wgt id='1986'> +1.1396739e+02 </wgt>
<wgt id='1987'> +1.1376956e+02 </wgt>
<wgt id='1988'> +1.1110663e+02 </wgt>
<wgt id='1989'> +1.1642260e+02 </wgt>
<wgt id='1990'> +1.1445875e+02 </wgt>
<wgt id='1991'> +1.1428719e+02 </wgt>
<wgt id='1992'> +1.1462984e+02 </wgt>
<wgt id='1993'> +1.1456699e+02 </wgt>
<wgt id='1994'> +1.1435045e+02 </wgt>
<wgt id='1995'> +1.1467390e+02 </wgt>
<wgt id='1996'> +1.1424440e+02 </wgt>
<wgt id='1997'> +1.1509834e+02 </wgt>
<wgt id='1998'> +1.1383352e+02 </wgt>
<wgt id='1999'> +1.1439294e+02 </wgt>
<wgt id='2000'> +1.1452740e+02 </wgt>
<wgt id='2001'> +1.1375356e+02 </wgt>
<wgt id='2002'> +1.1525114e+02 </wgt>
<wgt id='2003'> +1.1400986e+02 </wgt>
<wgt id='2004'> +1.1491532e+02 </wgt>
<wgt id='2005'> +1.1452549e+02 </wgt>
<wgt id='2006'> +1.1414902e+02 </wgt>
<wgt id='2007'> +1.1506665e+02 </wgt>
<wgt id='2008'> +1.1406381e+02 </wgt>
<wgt id='2009'> +1.1423586e+02 </wgt>
<wgt id='2010'> +1.1457407e+02 </wgt>
<wgt id='2011'> +1.1473339e+02 </wgt>
<wgt id='2012'> +1.1415546e+02 </wgt>
<wgt id='2013'> +1.1361027e+02 </wgt>
<wgt id='2014'> +1.1497913e+02 </wgt>
<wgt id='2015'> +1.1435901e+02 </wgt>
<wgt id='2016'> +1.1464571e+02 </wgt>
<wgt id='2017'> +1.1554379e+02 </wgt>
<wgt id='2018'> +1.1348434e+02 </wgt>
<wgt id='2019'> +1.1445875e+02 </wgt>
<wgt id='2020'> +1.1460628e+02 </wgt>
<wgt id='2021'> +1.1376393e+02 </wgt>
<wgt id='2022'> +1.1461046e+02 </wgt>
<wgt id='2023'> +1.1393768e+02 </wgt>
<wgt id='2024'> +1.1458814e+02 </wgt>
<wgt id='2025'> +1.1420932e+02 </wgt>
<wgt id='2026'> +1.1406623e+02 </wgt>
<wgt id='2027'> +1.1455484e+02 </wgt>
<wgt id='2028'> +1.1475410e+02 </wgt>
<wgt id='2029'> +1.1387010e+02 </wgt>
<wgt id='2030'> +1.1401334e+02 </wgt>
<wgt id='2031'> +1.1395122e+02 </wgt>
<wgt id='2032'> +1.1317755e+02 </wgt>
<wgt id='2033'> +1.1242845e+02 </wgt>
<wgt id='2034'> +1.1205063e+02 </wgt>
<wgt id='2035'> +1.1230052e+02 </wgt>
<wgt id='2036'> +1.1215240e+02 </wgt>
<wgt id='2037'> +1.1219941e+02 </wgt>
<wgt id='2038'> +1.1236055e+02 </wgt>
<wgt id='2039'> +1.1199114e+02 </wgt>
<wgt id='2040'> +1.1292578e+02 </wgt>
<wgt id='2041'> +1.1144695e+02 </wgt>
<wgt id='2042'> +1.1173919e+02 </wgt>
<wgt id='2043'> +1.1262875e+02 </wgt>
<wgt id='2044'> +1.1259255e+02 </wgt>
<wgt id='2045'> +1.1176284e+02 </wgt>
<wgt id='2046'> +1.1195141e+02 </wgt>
<wgt id='2047'> +1.1238841e+02 </wgt>
<wgt id='2048'> +1.1196657e+02 </wgt>
<wgt id='2049'> +1.1204617e+02 </wgt>
<wgt id='2050'> +1.1224041e+02 </wgt>
<wgt id='2051'> +1.1211279e+02 </wgt>
<wgt id='2052'> +1.1187835e+02 </wgt>
<wgt id='2053'> +1.1248523e+02 </wgt>
<wgt id='2054'> +1.1199925e+02 </wgt>
<wgt id='2055'> +1.1230464e+02 </wgt>
<wgt id='2056'> +1.1190343e+02 </wgt>
<wgt id='2057'> +1.1246404e+02 </wgt>
<wgt id='2058'> +1.1101691e+02 </wgt>
<wgt id='2059'> +1.1319691e+02 </wgt>
<wgt id='2060'> +1.1176036e+02 </wgt>
<wgt id='2061'> +1.1267528e+02 </wgt>
<wgt id='2062'> +1.1237296e+02 </wgt>
<wgt id='2063'> +1.1249294e+02 </wgt>
<wgt id='2064'> +1.1127528e+02 </wgt>
<wgt id='2065'> +1.1244384e+02 </wgt>
<wgt id='2066'> +1.1182109e+02 </wgt>
<wgt id='2067'> +1.1120458e+02 </wgt>
<wgt id='2068'> +1.1126017e+02 </wgt>
<wgt id='2069'> +1.1189829e+02 </wgt>
<wgt id='2070'> +1.1266802e+02 </wgt>
<wgt id='2071'> +1.1232219e+02 </wgt>
<wgt id='2072'> +1.1045592e+02 </wgt>
<wgt id='2073'> +1.1177743e+02 </wgt>
<wgt id='2074'> +1.1290061e+02 </wgt>
<wgt id='2075'> +1.1204814e+02 </wgt>
<wgt id='2076'> +1.1123132e+02 </wgt>
<wgt id='2077'> +1.1121821e+02 </wgt>
<wgt id='2078'> +1.1120427e+02 </wgt>
<wgt id='2079'> +1.1119095e+02 </wgt>
<wgt id='2080'> +1.1117686e+02 </wgt>
<wgt id='2081'> +1.1116366e+02 </wgt>
<wgt id='2082'> +1.1114992e+02 </wgt>
<wgt id='2083'> +1.1113660e+02 </wgt>
<wgt id='2084'> +1.1112270e+02 </wgt>
<wgt id='2085'> +1.1110919e+02 </wgt>
<wgt id='2086'> +1.1109546e+02 </wgt>
<wgt id='2087'> +1.1108213e+02 </wgt>
<wgt id='2088'> +1.1106833e+02 </wgt>
<wgt id='2089'> +1.1105485e+02 </wgt>
<wgt id='2090'> +1.1104111e+02 </wgt>
<wgt id='2091'> +1.1102763e+02 </wgt>
<wgt id='2092'> +1.1101415e+02 </wgt>
<wgt id='2093'> +1.1100049e+02 </wgt>
<wgt id='2094'> +1.1098677e+02 </wgt>
<wgt id='2095'> +1.1097331e+02 </wgt>
<wgt id='2096'> +1.1095956e+02 </wgt>
<wgt id='2097'> +1.1094636e+02 </wgt>
<wgt id='2098'> +1.1093290e+02 </wgt>
<wgt id='2099'> +1.1091916e+02 </wgt>
<wgt id='2100'> +1.1090568e+02 </wgt>
<wgt id='2101'> +1.1089179e+02 </wgt>
<wgt id='2102'> +1.1087867e+02 </wgt>
<wgt id='2103'> +1.1086476e+02 </wgt>
<wgt id='2104'> +1.1085146e+02 </wgt>
<wgt id='2105'> +1.1083773e+02 </wgt>
<wgt id='2106'> +1.1082421e+02 </wgt>
<wgt id='2107'> +1.1243098e+02 </wgt>
<wgt id='2108'> +1.1231324e+02 </wgt>
<wgt id='2109'> +1.1295762e+02 </wgt>
<wgt id='2110'> +1.1158599e+02 </wgt>
<wgt id='2111'> +1.1237970e+02 </wgt>
<wgt id='2112'> +1.1318268e+02 </wgt>
<wgt id='2113'> +1.1203365e+02 </wgt>
<wgt id='2114'> +1.1150468e+02 </wgt>
<wgt id='2115'> +1.1214103e+02 </wgt>
<wgt id='2116'> +1.1246702e+02 </wgt>
<wgt id='2117'> +1.1162384e+02 </wgt>
<wgt id='2118'> +1.1378210e+02 </wgt>
<wgt id='2119'> +1.1292817e+02 </wgt>
<wgt id='2120'> +1.1104687e+02 </wgt>
<wgt id='2121'> +1.1211448e+02 </wgt>
<wgt id='2122'> +1.1229208e+02 </wgt>
<wgt id='2123'> +1.1410960e+02 </wgt>
<wgt id='2124'> +1.1179649e+02 </wgt>
<wgt id='2125'> +1.1221232e+02 </wgt>
<wgt id='2126'> +1.1244830e+02 </wgt>
<wgt id='2127'> +1.1318484e+02 </wgt>
<wgt id='2128'> +1.1223096e+02 </wgt>
<wgt id='2129'> +1.1269257e+02 </wgt>
<wgt id='2130'> +1.1185966e+02 </wgt>
<wgt id='2131'> +1.1221266e+02 </wgt>
<wgt id='2132'> +1.1255917e+02 </wgt>
<wgt id='2133'> +1.1241595e+02 </wgt>
<wgt id='2134'> +1.1229922e+02 </wgt>
<wgt id='2135'> +1.1251615e+02 </wgt>
<wgt id='2136'> +1.1259214e+02 </wgt>
<wgt id='2137'> +1.1247108e+02 </wgt>
<wgt id='2138'> +1.1232709e+02 </wgt>
<wgt id='2139'> +1.1252264e+02 </wgt>
<wgt id='2140'> +1.1253960e+02 </wgt>
<wgt id='2141'> +1.1243691e+02 </wgt>
<wgt id='2142'> +1.1255482e+02 </wgt>
<wgt id='2143'> +1.1245722e+02 </wgt>
<wgt id='2144'> +1.1252705e+02 </wgt>
<wgt id='2145'> +1.1249063e+02 </wgt>
<wgt id='2146'> +1.1242697e+02 </wgt>
<wgt id='2147'> +1.1235162e+02 </wgt>
<wgt id='2148'> +1.1242242e+02 </wgt>
<wgt id='2149'> +1.1243940e+02 </wgt>
<wgt id='2150'> +1.1231570e+02 </wgt>
<wgt id='2151'> +1.1246780e+02 </wgt>
<wgt id='2152'> +1.1245881e+02 </wgt>
<wgt id='2153'> +1.1228600e+02 </wgt>
<wgt id='2154'> +1.1243620e+02 </wgt>
<wgt id='2155'> +1.1248385e+02 </wgt>
<wgt id='2156'> +1.1236176e+02 </wgt>
<wgt id='2157'> +1.1245039e+02 </wgt>
<wgt id='2158'> +1.1249830e+02 </wgt>
<wgt id='2159'> +1.1248844e+02 </wgt>
<wgt id='2160'> +1.1242742e+02 </wgt>
<wgt id='2161'> +1.1237714e+02 </wgt>
<wgt id='2162'> +1.1239080e+02 </wgt>
<wgt id='2163'> +1.1252960e+02 </wgt>
<wgt id='2164'> +1.1244396e+02 </wgt>
<wgt id='2165'> +1.1230680e+02 </wgt>
<wgt id='2166'> +1.1236941e+02 </wgt>
<wgt id='2167'> +1.1237958e+02 </wgt>
<wgt id='2168'> +1.1244482e+02 </wgt>
<wgt id='2169'> +1.1245004e+02 </wgt>
<wgt id='2170'> +1.1247660e+02 </wgt>
<wgt id='2171'> +1.1241562e+02 </wgt>
<wgt id='2172'> +1.1241395e+02 </wgt>
<wgt id='2173'> +1.1243909e+02 </wgt>
<wgt id='2174'> +1.1247067e+02 </wgt>
<wgt id='2175'> +1.1246917e+02 </wgt>
<wgt id='2176'> +1.1250996e+02 </wgt>
<wgt id='2177'> +1.1240796e+02 </wgt>
<wgt id='2178'> +1.1251345e+02 </wgt>
<wgt id='2179'> +1.1251326e+02 </wgt>
<wgt id='2180'> +1.1239876e+02 </wgt>
<wgt id='2181'> +1.1245015e+02 </wgt>
<wgt id='2182'> +1.1242737e+02 </wgt>
<wgt id='2183'> +1.1241666e+02 </wgt>
<wgt id='2184'> +1.1245586e+02 </wgt>
<wgt id='2185'> +1.1243281e+02 </wgt>
<wgt id='2186'> +1.1240911e+02 </wgt>
<wgt id='2187'> +1.1253998e+02 </wgt>
<wgt id='2188'> +1.1242136e+02 </wgt>
<wgt id='2189'> +1.1246801e+02 </wgt>
<wgt id='2190'> +1.1238808e+02 </wgt>
<wgt id='2191'> +1.1238240e+02 </wgt>
<wgt id='2192'> +1.1238059e+02 </wgt>
<wgt id='2193'> +1.1246032e+02 </wgt>
<wgt id='2194'> +1.1232758e+02 </wgt>
<wgt id='2195'> +1.1239110e+02 </wgt>
<wgt id='2196'> +1.1239037e+02 </wgt>
<wgt id='2197'> +1.1244937e+02 </wgt>
<wgt id='2198'> +1.1240462e+02 </wgt>
<wgt id='2199'> +1.1241909e+02 </wgt>
<wgt id='2200'> +1.1240691e+02 </wgt>
<wgt id='2201'> +1.1240903e+02 </wgt>
<wgt id='2202'> +1.1244272e+02 </wgt>
<wgt id='2203'> +1.1240819e+02 </wgt>
<wgt id='2204'> +1.1244145e+02 </wgt>
<wgt id='2205'> +1.1242254e+02 </wgt>
<wgt id='2206'> +1.1240320e+02 </wgt>
<wgt id='2207'> +1.1243160e+02 </wgt>
<wgt id='2208'> +1.1242965e+02 </wgt>
<wgt id='2209'> +1.1242218e+02 </wgt>
<wgt id='2210'> +1.1243239e+02 </wgt>
<wgt id='2211'> +1.1243261e+02 </wgt>
<wgt id='2212'> +1.1243506e+02 </wgt>
<wgt id='2213'> +1.1243158e+02 </wgt>
<wgt id='2214'> +1.1242511e+02 </wgt>
<wgt id='2215'> +1.1876434e+02 </wgt>
<wgt id='2216'> +1.1492342e+02 </wgt>
<wgt id='2217'> +1.1772438e+02 </wgt>
<wgt id='2218'> +1.1926074e+02 </wgt>
<wgt id='2219'> +1.1754371e+02 </wgt>
<wgt id='2220'> +1.0945271e+02 </wgt>
<wgt id='2221'> +1.2224069e+02 </wgt>
<wgt id='2222'> +1.1857897e+02 </wgt>
<wgt id='2223'> +1.2098164e+02 </wgt>
<wgt id='2224'> +1.2065165e+02 </wgt>
<wgt id='2225'> +1.1288272e+02 </wgt>
<wgt id='2226'> +1.0981295e+02 </wgt>
<wgt id='2227'> +1.2136362e+02 </wgt>
<wgt id='2228'> +1.2114838e+02 </wgt>
<wgt id='2229'> +1.1510896e+02 </wgt>
<wgt id='2230'> +1.2152498e+02 </wgt>
<wgt id='2231'> +1.2047795e+02 </wgt>
<wgt id='2232'> +1.1864259e+02 </wgt>
<wgt id='2233'> +1.2020727e+02 </wgt>
<wgt id='2234'> +1.2193725e+02 </wgt>
<wgt id='2235'> +1.2424954e+02 </wgt>
<wgt id='2236'> +1.1986776e+02 </wgt>
<wgt id='2237'> +1.1554283e+02 </wgt>
<wgt id='2238'> +1.2742077e+02 </wgt>
<wgt id='2239'> +1.1817491e+02 </wgt>
<wgt id='2240'> +1.1849806e+02 </wgt>
<wgt id='2241'> +1.1932045e+02 </wgt>
<wgt id='2242'> +1.1887838e+02 </wgt>
<wgt id='2243'> +1.1689011e+02 </wgt>
<wgt id='2244'> +1.2013480e+02 </wgt>
<wgt id='2245'> +1.2250570e+02 </wgt>
<wgt id='2246'> +1.1722255e+02 </wgt>
<wgt id='2247'> +1.1450414e+02 </wgt>
<wgt id='2248'> +1.1639968e+02 </wgt>
<wgt id='2249'> +1.1812319e+02 </wgt>
<wgt id='2250'> +1.2134479e+02 </wgt>
<wgt id='2251'> +1.2073688e+02 </wgt>
<wgt id='2252'> +1.2118244e+02 </wgt>
<wgt id='2253'> +1.2200289e+02 </wgt>
<wgt id='2254'> +1.1775098e+02 </wgt>
<wgt id='2255'> +1.1828586e+02 </wgt>
<wgt id='2256'> +1.2085414e+02 </wgt>
<wgt id='2257'> +1.1770050e+02 </wgt>
<wgt id='2258'> +1.1793604e+02 </wgt>
<wgt id='2259'> +1.1767876e+02 </wgt>
<wgt id='2260'> +1.1610271e+02 </wgt>
<wgt id='2261'> +1.2192679e+02 </wgt>
<wgt id='2262'> +1.1783934e+02 </wgt>
<wgt id='2263'> +1.1887896e+02 </wgt>
<wgt id='2264'> +1.1719542e+02 </wgt>
<wgt id='2265'> +1.1743056e+02 </wgt>
<wgt id='2266'> +1.1769990e+02 </wgt>
<wgt id='2267'> +1.1604630e+02 </wgt>
<wgt id='2268'> +1.1944513e+02 </wgt>
<wgt id='2269'> +1.1964612e+02 </wgt>
<wgt id='2270'> +1.1684320e+02 </wgt>
<wgt id='2271'> +1.1718038e+02 </wgt>
<wgt id='2272'> +1.2232715e+02 </wgt>
<wgt id='2273'> +1.1593897e+02 </wgt>
<wgt id='2274'> +1.2103476e+02 </wgt>
<wgt id='2275'> +1.1866163e+02 </wgt>
<wgt id='2276'> +1.1918450e+02 </wgt>
<wgt id='2277'> +1.1917384e+02 </wgt>
<wgt id='2278'> +1.1876716e+02 </wgt>
<wgt id='2279'> +1.1588471e+02 </wgt>
<wgt id='2280'> +1.2028474e+02 </wgt>
<wgt id='2281'> +1.1755360e+02 </wgt>
<wgt id='2282'> +1.2864472e+02 </wgt>
<wgt id='2283'> +1.1730843e+02 </wgt>
<wgt id='2284'> +1.1467886e+02 </wgt>
<wgt id='2285'> +1.1601475e+02 </wgt>
<wgt id='2286'> +1.1821747e+02 </wgt>
<wgt id='2287'> +1.2005019e+02 </wgt>
<wgt id='2288'> +1.1348969e+02 </wgt>
<wgt id='2289'> +1.1944170e+02 </wgt>
<wgt id='2290'> +1.1834162e+02 </wgt>
<wgt id='2291'> +1.1416689e+02 </wgt>
<wgt id='2292'> +1.1766441e+02 </wgt>
<wgt id='2293'> +1.2193095e+02 </wgt>
<wgt id='2294'> +1.1835377e+02 </wgt>
<wgt id='2295'> +1.1791899e+02 </wgt>
<wgt id='2296'> +1.1862078e+02 </wgt>
<wgt id='2297'> +1.1590485e+02 </wgt>
<wgt id='2298'> +1.2426578e+02 </wgt>
<wgt id='2299'> +1.1816954e+02 </wgt>
<wgt id='2300'> +1.1631195e+02 </wgt>
<wgt id='2301'> +1.1712101e+02 </wgt>
<wgt id='2302'> +1.1781354e+02 </wgt>
<wgt id='2303'> +1.1878256e+02 </wgt>
<wgt id='2304'> +1.2551508e+02 </wgt>
<wgt id='2305'> +1.1667937e+02 </wgt>
<wgt id='2306'> +1.1899712e+02 </wgt>
<wgt id='2307'> +1.1925590e+02 </wgt>
<wgt id='2308'> +1.1969264e+02 </wgt>
<wgt id='2309'> +1.2030229e+02 </wgt>
<wgt id='2310'> +1.1584848e+02 </wgt>
<wgt id='2311'> +1.2138669e+02 </wgt>
<wgt id='2312'> +1.1918721e+02 </wgt>
<wgt id='2313'> +1.2168172e+02 </wgt>
<wgt id='2314'> +1.2214515e+02 </wgt>
<wgt id='2315'> +1.2159659e+02 </wgt>
<wgt id='2316'> +1.1676935e+02 </wgt>
<wgt id='2317'> +1.2036096e+02 </wgt>
<wgt id='2318'> +1.1571514e+02 </wgt>
<wgt id='2319'> +1.1336171e+02 </wgt>
<wgt id='2320'> +1.4278880e+02 </wgt>
<wgt id='2321'> +1.2270240e+02 </wgt>
<wgt id='2322'> +1.3829241e+02 </wgt>
</rwgt>
</event>
<event>
13      1 +1.1579678e+02 4.36357800e+02 7.81859000e-03 9.55183000e-02
        1 -1    0    0  502    0 +0.0000000000e+00 +0.0000000000e+00 +1.7357008066e+03 1.7357008066e+03 0.0000000000e+00 0.0000e+00 1.0000e+00
       -1 -1    0    0    0  501 +0.0000000000e+00 +0.0000000000e+00 -3.1778213745e+02 3.1778213745e+02 0.0000000000e+00 0.0000e+00 -1.0000e+00
        6  2    1    2  502    0 -3.9971380163e+02 -8.5083937288e+00 +1.5222849695e+03 1.5833111075e+03 1.7227599574e+02 0.0000e+00 0.0000e+00
        5  1    3    3  502    0 -2.1597400350e+02 +4.5808033411e+01 +9.2573441520e+02 9.5169709130e+02 0.0000000000e+00 0.0000e+00 -1.0000e+00
       24  2    3    3    0    0 -1.8373979814e+02 -5.4316427139e+01 +5.9655055427e+02 6.3161401615e+02 7.9706423275e+01 0.0000e+00 0.0000e+00
      -15  1    5    5    0    0 -6.3273942110e+01 +1.6664270606e+01 +2.3594732836e+02 2.4485185608e+02 0.0000000000e+00 0.0000e+00 1.0000e+00
       16  1    5    5    0    0 -1.2046585603e+02 -7.0980697745e+01 +3.6060322592e+02 3.8676216007e+02 0.0000000000e+00 0.0000e+00 -1.0000e+00
       -6  2    1    2    0  503 +4.0905086106e+02 +1.5003066436e+01 -1.0890898197e+02 4.5792449367e+02 1.7402866608e+02 0.0000e+00 0.0000e+00
       -5  1    8    8    0  503 +2.2942936577e+02 +5.1238364744e+01 -1.0693347787e+02 2.5825950628e+02 0.0000000000e+00 0.0000e+00 1.0000e+00
      -24  2    8    8    0    0 +1.7962149529e+02 -3.6235298308e+01 -1.9755041054e+00 1.9966498739e+02 7.9280048932e+01 0.0000e+00 0.0000e+00
       15  1   10   10    0    0 +7.3422712086e+01 -4.6708566724e+00 -3.8465818354e+01 8.3020062236e+01 0.0000000000e+00 0.0000e+00 -1.0000e+00
      -16  1   10   10    0    0 +1.0619878320e+02 -3.1564441636e+01 +3.6490314248e+01 1.1664492515e+02 0.0000000000e+00 0.0000e+00 1.0000e+00
       21  1    1    2  503  501 -9.3370594228e+00 -6.4946727074e+00 +4.5426816513e+00 1.2247342929e+01 0.0000000000e+00 0.0000e+00 1.0000e+00
<scales pt_clust_1="13000.0" pt_clust_2="13000.0" pt_clust_3="13000.0" pt_clust_4="13000.0" pt_clust_5="13000.0" pt_clust_6="13000.0" pt_clust_7="11.37372"></scales>
<mgrwt>
<rscale>  2 0.43635783e+03</rscale>
<asrwt>  1 0.11373718e+02</asrwt>
<pdfrwt beam="1">  1        1 0.26703089e+00 0.43635783e+03</pdfrwt>
<pdfrwt beam="2">  2       -1       -1 0.48889561e-01 0.48060432e-01 0.11373718e+02 0.43635783e+03</pdfrwt>
<totfact> 0.38308340e-02</totfact>
</mgrwt>
<clustering>
<clus scale="   11.374">  2  5  1 -1</clus>
<clus scale=" 1442.086">  3  4 -1 -1</clus>
<clus scale="  436.358">  1  3  2 -1</clus>
</clustering>
<rwgt>
<wgt id='reference_point'> +1.1579678e+02 </wgt>
<wgt id='eftrwgt0_ctg_-0.754_cqq83_2.978_cqq81_11.175_cqu8_-0.722_cqd8_-22.551_ctq8_11.076_ctu8_-15.131_ctd8_20.128_cqq13_0.321_cqq11_-6.675_cqu1_-3.516_cqd1_6.151_ctq1_5.402_ctu1_-8.742_ctd1_5.367'> +5.9318654e+01 </wgt>
<wgt id='eftrwgt1_ctg_-1.195_cqq83_-15.761_cqq81_-4.235_cqu8_-15.499_cqd8_-10.228_ctq8_-0.966_ctu8_-17.272_ctd8_-16.58_cqq13_-4.893_cqq11_4.278_cqu1_-0.839_cqd1_-4.333_ctq1_2.613_ctu1_-1.417_ctd1_-2.816'> +2.5428590e+01 </wgt>
<wgt id='eftrwgt2_ctg_-1.383_cqq83_5.883_cqq81_-5.515_cqu8_2.394_cqd8_-9.03_ctq8_-0.054_ctu8_-11.517_ctd8_-10.825_cqq13_-0.011_cqq11_4.192_cqu1_6.747_cqd1_8.549_ctq1_7.513_ctu1_-7.841_ctd1_7.605'> +3.5424561e+02 </wgt>
<wgt id='eftrwgt3_ctg_0.83_cqq83_7.564_cqq81_-4.758_cqu8_11.03_cqd8_2.018_ctq8_13.609_ctu8_6.693_ctd8_12.801_cqq13_1.059_cqq11_-4.128_cqu1_0.962_cqd1_4.274_ctq1_8.055_ctu1_-10.409_ctd1_-1.438'> +6.4669600e+01 </wgt>
<wgt id='eftrwgt4_ctg_0.635_cqq83_-11.713_cqq81_0.383_cqu8_10.984_cqd8_-20.924_ctq8_-2.091_ctu8_5.555_ctd8_1.514_cqq13_3.429_cqq11_-0.162_cqu1_-10.649_cqd1_5.475_ctq1_5.872_ctu1_-1.687_ctd1_-8.071'> +2.6889780e+02 </wgt>
<wgt id='eftrwgt5_ctg_0.29_cqq83_4.054_cqq81_-1.527_cqu8_-4.305_cqd8_-20.381_ctq8_12.02_ctu8_-17.198_ctd8_4.416_cqq13_-0.765_cqq11_-1.818_cqu1_-0.276_cqd1_12.045_ctq1_-6.626_ctu1_4.803_ctd1_5.994'> +1.1745680e+02 </wgt>
<wgt id='eftrwgt6_ctg_0.363_cqq83_-5.38_cqq81_10.485_cqu8_-11.932_cqd8_-4.948_ctq8_9.185_ctu8_-12.064_ctd8_17.315_cqq13_-0.222_cqq11_-6.441_cqu1_-7.804_cqd1_-9.036_ctq1_-7.458_ctu1_9.293_ctd1_3.977'> +3.4500005e+01 </wgt>
<wgt id='eftrwgt7_ctg_-1.197_cqq83_-4.451_cqq81_7.597_cqu8_-7.443_cqd8_22.122_ctq8_3.031_ctu8_-12.259_ctd8_16.154_cqq13_-6.717_cqq11_-0.945_cqu1_5.096_cqd1_2.249_ctq1_-0.68_ctu1_-7.751_ctd1_8.44'> +1.5984895e+02 </wgt>
<wgt id='eftrwgt8_ctg_0.542_cqq83_-14.102_cqq81_-2.643_cqu8_18.837_cqd8_-13.941_ctq8_-13.421_ctu8_13.125_ctd8_-6.068_cqq13_-0.748_cqq11_-1.138_cqu1_3.707_cqd1_-4.4_ctq1_2.065_ctu1_5.13_ctd1_4.025'> +9.5265492e+01 </wgt>
<wgt id='eftrwgt9_ctg_1.074_cqq83_4.736_cqq81_-13.002_cqu8_-15.389_cqd8_0.91_ctq8_-9.328_ctu8_7.624_ctd8_-22.019_cqq13_3.75_cqq11_-2.977_cqu1_-3.02_cqd1_-13.923_ctq1_-7.186_ctu1_2.633_ctd1_-7.896'> +1.3141799e+02 </wgt>
<wgt id='eftrwgt10_ctg_1.238_cqq83_-17.533_cqq81_12.633_cqu8_3.116_cqd8_9.117_ctq8_-4.456_ctu8_0.149_ctd8_15.76_cqq13_-4.569_cqq11_4.155_cqu1_6.051_cqd1_-8.105_ctq1_0.824_ctu1_0.75_ctd1_6.587'> +8.5026358e+01 </wgt>
<wgt id='eftrwgt11_ctg_-1.233_cqq83_-17.319_cqq81_-5.312_cqu8_16.53_cqd8_-9.607_ctq8_-3.402_ctu8_-16.447_ctd8_-22.15_cqq13_-0.265_cqq11_4.394_cqu1_-0.387_cqd1_0.421_ctq1_2.017_ctu1_-6.772_ctd1_6.873'> +4.6033442e+02 </wgt>
<wgt id='eftrwgt12_ctg_0.408_cqq83_-9.97_cqq81_3.05_cqu8_8.428_cqd8_-10.45_ctq8_-4.549_ctu8_7.41_ctd8_-18.252_cqq13_4.276_cqq11_0.305_cqu1_-4.657_cqd1_-5.86_ctq1_4.293_ctu1_-6.686_ctd1_-6.47'> +8.5504359e+01 </wgt>
<wgt id='eftrwgt13_ctg_1.091_cqq83_16.651_cqq81_9.034_cqu8_-17.068_cqd8_-16.41_ctq8_5.505_ctu8_-6.023_ctd8_-19.606_cqq13_-1.427_cqq11_2.94_cqu1_-7.645_cqd1_-9.373_ctq1_-6.218_ctu1_1.987_ctd1_-10.94'> +2.8968783e+02 </wgt>
<wgt id='eftrwgt14_ctg_-0.901_cqq83_-3.298_cqq81_-0.028_cqu8_-17.181_cqd8_-17.858_ctq8_-13.488_ctu8_-10.256_ctd8_-0.921_cqq13_4.443_cqq11_-0.633_cqu1_-9.228_cqd1_11.328_ctq1_-0.213_ctu1_-0.551_ctd1_-5.789'> +1.1962506e+02 </wgt>
<wgt id='eftrwgt15_ctg_1.026_cqq83_10.852_cqq81_-7.218_cqu8_6.384_cqd8_16.276_ctq8_-4.737_ctu8_-13.404_ctd8_1.733_cqq13_7.315_cqq11_-8.101_cqu1_-2.738_cqd1_7.548_ctq1_8.479_ctu1_-6.738_ctd1_-5.539'> +1.3419022e+02 </wgt>
<wgt id='eftrwgt16_ctg_-0.132_cqq83_-16.656_cqq81_4.305_cqu8_-12.062_cqd8_4.31_ctq8_13.615_ctu8_3.27_ctd8_11.552_cqq13_-1.799_cqq11_7.423_cqu1_6.843_cqd1_13.535_ctq1_0.146_ctu1_7.054_ctd1_9.686'> +2.6300056e+02 </wgt>
<wgt id='eftrwgt17_ctg_0.712_cqq83_-6.61_cqq81_-4.301_cqu8_-1.403_cqd8_6.303_ctq8_-4.86_ctu8_3.128_ctd8_-14.844_cqq13_0.039_cqq11_-4.957_cqu1_2.629_cqd1_-12.532_ctq1_4.939_ctu1_-4.209_ctd1_-3.655'> +2.9167323e+01 </wgt>
<wgt id='eftrwgt18_ctg_-1.35_cqq83_-11.68_cqq81_4.439_cqu8_13.372_cqd8_-0.653_ctq8_5.688_ctu8_0.67_ctd8_-7.709_cqq13_-5.475_cqq11_-5.399_cqu1_3.601_cqd1_-8.439_ctq1_1.117_ctu1_-0.006_ctd1_13.614'> +8.4381037e+02 </wgt>
<wgt id='eftrwgt19_ctg_0.098_cqq83_15.517_cqq81_-5.712_cqu8_-4.013_cqd8_-7.836_ctq8_-1.046_ctu8_-12.063_ctd8_6.039_cqq13_-3.557_cqq11_7.181_cqu1_6.996_cqd1_-3.116_ctq1_1.869_ctu1_1.545_ctd1_-10.959'> +5.7007402e+02 </wgt>
<wgt id='eftrwgt20_ctg_0.401_cqq83_8.943_cqq81_9.36_cqu8_14.22_cqd8_-14.886_ctq8_8.313_ctu8_5.302_ctd8_-10.568_cqq13_-2.406_cqq11_5.185_cqu1_-6.752_cqd1_-3.344_ctq1_-0.322_ctu1_-1.749_ctd1_2.241'> +6.6136455e+01 </wgt>
<wgt id='eftrwgt21_ctg_0.263_cqq83_-7.003_cqq81_9.705_cqu8_13.582_cqd8_19.058_ctq8_12.946_ctu8_6.424_ctd8_17.248_cqq13_-4.887_cqq11_-3.405_cqu1_10.633_cqd1_-6.948_ctq1_5.694_ctu1_-6.922_ctd1_1.277'> +4.1730208e+01 </wgt>
<wgt id='eftrwgt22_ctg_0.627_cqq83_-17.281_cqq81_-4.961_cqu8_16.938_cqd8_22.735_ctq8_-1.208_ctu8_-3.511_ctd8_-5.122_cqq13_5.387_cqq11_-4.565_cqu1_7.804_cqd1_11.098_ctq1_-1.5_ctu1_8.736_ctd1_13.194'> +7.7056980e+02 </wgt>
<wgt id='eftrwgt23_ctg_-0.648_cqq83_15.811_cqq81_12.009_cqu8_-18.949_cqd8_0.783_ctq8_-3.059_ctu8_-17.702_ctd8_-6.711_cqq13_-4.356_cqq11_3.652_cqu1_-8.368_cqd1_-4.016_ctq1_2.411_ctu1_3.109_ctd1_4.001'> +9.8226179e+01 </wgt>
<wgt id='eftrwgt24_ctg_0.279_cqq83_3.419_cqq81_-12.348_cqu8_-3.685_cqd8_-7.428_ctq8_10.986_ctu8_-5.15_ctd8_-17.732_cqq13_-2.497_cqq11_-5.647_cqu1_0.002_cqd1_-4.035_ctq1_-3.93_ctu1_-1.854_ctd1_8.352'> +5.0222683e+02 </wgt>
<wgt id='eftrwgt25_ctg_1.257_cqq83_8.7_cqq81_-13.787_cqu8_1.396_cqd8_-4.553_ctq8_0.437_ctu8_6.957_ctd8_15.293_cqq13_7.476_cqq11_-5.974_cqu1_-3.383_cqd1_-2.371_ctq1_-0.219_ctu1_2.622_ctd1_-7.856'> +4.4562590e+02 </wgt>
<wgt id='eftrwgt26_ctg_-1.323_cqq83_-5.612_cqq81_0.616_cqu8_6.632_cqd8_-3.336_ctq8_13.782_ctu8_-3.939_ctd8_-15.742_cqq13_2.848_cqq11_5.501_cqu1_-1.125_cqd1_-13.284_ctq1_-0.806_ctu1_-0.98_ctd1_-3.316'> +2.6993737e+01 </wgt>
<wgt id='eftrwgt27_ctg_-1.062_cqq83_-5.785_cqq81_-3.069_cqu8_7.318_cqd8_-18.47_ctq8_-5.182_ctu8_-7.369_ctd8_-7.449_cqq13_-0.119_cqq11_-7.366_cqu1_-4.956_cqd1_-13.113_ctq1_-1.612_ctu1_-8.864_ctd1_-9.975'> +3.2428649e+02 </wgt>
<wgt id='eftrwgt28_ctg_0.241_cqq83_-10.317_cqq81_-13.275_cqu8_-8.248_cqd8_-17.794_ctq8_-12.823_ctu8_-16.47_ctd8_-4.449_cqq13_-2.362_cqq11_4.11_cqu1_-10.775_cqd1_-8.582_ctq1_2.037_ctu1_-10.4_ctd1_1.059'> +1.1451990e+01 </wgt>
<wgt id='eftrwgt29_ctg_0.186_cqq83_-14.559_cqq81_-7.088_cqu8_-18.724_cqd8_-0.974_ctq8_-0.831_ctu8_6.546_ctd8_-21.38_cqq13_-1.637_cqq11_2.85_cqu1_2.42_cqd1_-0.935_ctq1_-8.07_ctu1_5.575_ctd1_0.549'> +9.7564217e+01 </wgt>
<wgt id='eftrwgt30_ctg_-1.395_cqq83_-10.203_cqq81_12.938_cqu8_3.137_cqd8_11.131_ctq8_9.079_ctu8_-0.374_ctd8_-23.313_cqq13_-4.383_cqq11_-1.0_cqu1_1.541_cqd1_2.342_ctq1_-4.241_ctu1_-4.162_ctd1_-12.306'> +3.4662069e+02 </wgt>
<wgt id='eftrwgt31_ctg_0.115_cqq83_-15.901_cqq81_-6.358_cqu8_-16.907_cqd8_-5.747_ctq8_2.066_ctu8_-12.966_ctd8_-16.328_cqq13_-3.096_cqq11_2.684_cqu1_-8.352_cqd1_-6.211_ctq1_2.511_ctu1_5.799_ctd1_9.554'> +5.8317055e+02 </wgt>
<wgt id='eftrwgt32_ctg_1.117_cqq83_2.704_cqq81_7.787_cqu8_-16.533_cqd8_8.904_ctq8_10.253_ctu8_2.612_ctd8_4.645_cqq13_-5.493_cqq11_2.812_cqu1_-7.509_cqd1_-3.19_ctq1_-6.22_ctu1_5.276_ctd1_5.86'> +9.9531096e+01 </wgt>
<wgt id='eftrwgt33_ctg_0.209_cqq83_-8.091_cqq81_-11.607_cqu8_-16.123_cqd8_-8.064_ctq8_-3.29_ctu8_-14.767_ctd8_-13.018_cqq13_-5.739_cqq11_0.542_cqu1_-1.411_cqd1_-8.179_ctq1_-5.997_ctu1_-7.343_ctd1_12.169'> +7.8529253e+02 </wgt>
<wgt id='eftrwgt34_ctg_-1.122_cqq83_6.387_cqq81_-1.268_cqu8_-5.867_cqd8_-9.336_ctq8_-2.052_ctu8_-17.13_ctd8_21.742_cqq13_0.581_cqq11_5.886_cqu1_-10.133_cqd1_-11.29_ctq1_-6.71_ctu1_3.942_ctd1_9.713'> +1.9177100e+02 </wgt>
<wgt id='eftrwgt35_ctg_-1.321_cqq83_10.781_cqq81_5.96_cqu8_-16.967_cqd8_5.511_ctq8_-3.29_ctu8_-3.816_ctd8_-14.387_cqq13_-5.938_cqq11_-2.941_cqu1_-5.98_cqd1_11.576_ctq1_0.788_ctu1_10.277_ctd1_-4.905'> +4.4108509e+01 </wgt>
<wgt id='eftrwgt36_ctg_-0.68_cqq83_-4.656_cqq81_2.64_cqu8_-5.091_cqd8_-6.267_ctq8_12.357_ctu8_4.141_ctd8_8.527_cqq13_4.229_cqq11_-0.357_cqu1_6.729_cqd1_-0.812_ctq1_5.304_ctu1_-6.109_ctd1_-13.243'> +8.4926408e+02 </wgt>
<wgt id='eftrwgt37_ctg_-1.287_cqq83_-9.3_cqq81_-1.066_cqu8_-15.272_cqd8_5.656_ctq8_0.824_ctu8_-7.129_ctd8_-5.439_cqq13_-7.864_cqq11_0.302_cqu1_3.094_cqd1_1.84_ctq1_-4.372_ctu1_-7.563_ctd1_2.217'> +3.7727740e+01 </wgt>
<wgt id='eftrwgt38_ctg_0.789_cqq83_2.618_cqq81_-0.896_cqu8_4.006_cqd8_12.013_ctq8_-9.44_ctu8_-16.781_ctd8_-6.655_cqq13_-5.548_cqq11_2.529_cqu1_7.52_cqd1_-4.256_ctq1_5.745_ctu1_0.798_ctd1_7.829'> +2.9915108e+02 </wgt>
<wgt id='eftrwgt39_ctg_0.721_cqq83_1.632_cqq81_7.373_cqu8_-0.631_cqd8_4.104_ctq8_12.802_ctu8_-10.868_ctd8_-5.968_cqq13_-1.832_cqq11_-3.336_cqu1_-4.17_cqd1_-6.056_ctq1_-3.676_ctu1_5.679_ctd1_-9.027'> +2.7135603e+02 </wgt>
<wgt id='eftrwgt40_ctg_-0.362_cqq83_-1.589_cqq81_6.197_cqu8_-18.27_cqd8_7.832_ctq8_-9.399_ctu8_-6.455_ctd8_10.547_cqq13_-4.378_cqq11_5.514_cqu1_-8.215_cqd1_4.889_ctq1_5.265_ctu1_10.009_ctd1_3.422'> +2.3708450e+01 </wgt>
<wgt id='eftrwgt41_ctg_0.658_cqq83_-10.403_cqq81_3.211_cqu8_-2.337_cqd8_17.509_ctq8_6.996_ctu8_-1.761_ctd8_-2.923_cqq13_7.515_cqq11_-0.097_cqu1_0.074_cqd1_12.92_ctq1_-6.01_ctu1_-8.626_ctd1_2.326'> +3.1843986e+01 </wgt>
<wgt id='eftrwgt42_ctg_0.239_cqq83_-0.972_cqq81_-1.122_cqu8_-17.342_cqd8_-7.199_ctq8_-12.68_ctu8_1.247_ctd8_17.533_cqq13_-6.465_cqq11_-5.436_cqu1_9.489_cqd1_-0.985_ctq1_8.129_ctu1_-5.418_ctd1_5.104'> +5.0914030e+01 </wgt>
<wgt id='eftrwgt43_ctg_-0.649_cqq83_12.017_cqq81_-8.81_cqu8_-11.947_cqd8_-0.617_ctq8_-8.389_ctu8_-11.126_ctd8_-23.747_cqq13_-2.837_cqq11_5.496_cqu1_4.701_cqd1_4.955_ctq1_2.49_ctu1_2.683_ctd1_-7.631'> +1.1139582e+02 </wgt>
<wgt id='eftrwgt44_ctg_0.171_cqq83_12.009_cqq81_1.908_cqu8_4.651_cqd8_-17.53_ctq8_4.385_ctu8_9.354_ctd8_6.605_cqq13_0.349_cqq11_-3.295_cqu1_-5.85_cqd1_-13.524_ctq1_0.629_ctu1_-6.984_ctd1_13.334'> +5.7437963e+02 </wgt>
<wgt id='eftrwgt45_ctg_1.117_cqq83_-1.134_cqq81_0.846_cqu8_-17.819_cqd8_7.834_ctq8_-1.016_ctu8_17.048_ctd8_-16.169_cqq13_3.138_cqq11_-2.054_cqu1_-10.535_cqd1_-6.766_ctq1_2.47_ctu1_6.02_ctd1_11.267'> +7.4603349e+02 </wgt>
<wgt id='eftrwgt46_ctg_0.852_cqq83_-5.375_cqq81_-1.252_cqu8_-6.421_cqd8_17.384_ctq8_4.252_ctu8_6.891_ctd8_10.51_cqq13_-4.608_cqq11_7.589_cqu1_-6.678_cqd1_11.188_ctq1_-3.189_ctu1_-10.063_ctd1_0.955'> +1.4008400e+01 </wgt>
<wgt id='eftrwgt47_ctg_0.672_cqq83_10.633_cqq81_-10.436_cqu8_3.141_cqd8_5.015_ctq8_-11.403_ctu8_-4.418_ctd8_-1.92_cqq13_0.491_cqq11_-8.212_cqu1_-0.701_cqd1_-0.931_ctq1_5.075_ctu1_5.776_ctd1_-9.187'> +3.1785072e+02 </wgt>
<wgt id='eftrwgt48_ctg_0.097_cqq83_-13.235_cqq81_3.083_cqu8_-6.992_cqd8_-21.927_ctq8_-1.972_ctu8_12.828_ctd8_-23.378_cqq13_1.548_cqq11_-7.292_cqu1_-7.809_cqd1_-3.663_ctq1_-0.091_ctu1_3.906_ctd1_0.689'> +1.2170966e+02 </wgt>
<wgt id='eftrwgt49_ctg_1.029_cqq83_-0.471_cqq81_-7.658_cqu8_-14.403_cqd8_16.435_ctq8_-10.202_ctu8_-12.269_ctd8_-13.394_cqq13_-1.09_cqq11_4.914_cqu1_-4.324_cqd1_0.827_ctq1_-4.544_ctu1_-0.962_ctd1_9.864'> +5.6411031e+02 </wgt>
<wgt id='eftrwgt50_ctg_-0.665_cqq83_-14.242_cqq81_-8.115_cqu8_4.63_cqd8_10.452_ctq8_-13.832_ctu8_-13.909_ctd8_-10.071_cqq13_-2.706_cqq11_1.201_cqu1_0.148_cqd1_-0.781_ctq1_-6.102_ctu1_-6.349_ctd1_6.964'> +2.8665739e+02 </wgt>
<wgt id='eftrwgt51_ctg_-0.787_cqq83_-15.261_cqq81_8.809_cqu8_-2.155_cqd8_-17.025_ctq8_-6.971_ctu8_10.751_ctd8_-10.297_cqq13_-0.617_cqq11_7.049_cqu1_-7.986_cqd1_-2.061_ctq1_0.449_ctu1_6.857_ctd1_-13.813'> +5.9951389e+02 </wgt>
<wgt id='eftrwgt52_ctg_0.862_cqq83_17.48_cqq81_4.698_cqu8_8.08_cqd8_9.692_ctq8_3.485_ctu8_11.755_ctd8_-3.559_cqq13_6.645_cqq11_2.713_cqu1_-8.115_cqd1_8.608_ctq1_-6.273_ctu1_7.111_ctd1_5.866'> +1.6258114e+02 </wgt>
<wgt id='eftrwgt53_ctg_-0.903_cqq83_3.892_cqq81_-1.362_cqu8_-12.339_cqd8_-12.919_ctq8_2.258_ctu8_8.165_ctd8_16.95_cqq13_-4.352_cqq11_1.546_cqu1_7.695_cqd1_11.734_ctq1_2.3_ctu1_9.781_ctd1_1.838'> +3.0173707e+01 </wgt>
<wgt id='eftrwgt54_ctg_-0.522_cqq83_-0.949_cqq81_-0.037_cqu8_14.405_cqd8_-4.088_ctq8_-5.643_ctu8_8.684_ctd8_-21.06_cqq13_-6.966_cqq11_-5.093_cqu1_-4.897_cqd1_2.455_ctq1_-3.435_ctu1_3.57_ctd1_-7.932'> +1.2568338e+02 </wgt>
<wgt id='eftrwgt55_ctg_-0.222_cqq83_1.213_cqq81_10.848_cqu8_-14.188_cqd8_-19.129_ctq8_4.966_ctu8_6.833_ctd8_-10.208_cqq13_6.393_cqq11_2.922_cqu1_9.268_cqd1_9.372_ctq1_3.58_ctu1_5.027_ctd1_13.963'> +9.6907957e+02 </wgt>
<wgt id='eftrwgt56_ctg_-0.064_cqq83_-13.896_cqq81_-9.146_cqu8_-12.936_cqd8_6.184_ctq8_-9.142_ctu8_7.671_ctd8_-23.063_cqq13_-5.638_cqq11_0.314_cqu1_3.549_cqd1_13.313_ctq1_7.463_ctu1_-2.827_ctd1_4.274'> +2.9667461e+02 </wgt>
<wgt id='eftrwgt57_ctg_0.55_cqq83_-0.366_cqq81_13.131_cqu8_-11.082_cqd8_-6.326_ctq8_-1.457_ctu8_-10.801_ctd8_-1.042_cqq13_-6.705_cqq11_-3.081_cqu1_2.128_cqd1_13.722_ctq1_-3.878_ctu1_8.438_ctd1_-10.644'> +4.2117544e+02 </wgt>
<wgt id='eftrwgt58_ctg_-0.739_cqq83_-1.927_cqq81_-4.498_cqu8_-7.655_cqd8_-12.724_ctq8_7.311_ctu8_0.6_ctd8_-24.282_cqq13_7.046_cqq11_-1.157_cqu1_2.74_cqd1_1.196_ctq1_0.456_ctu1_10.57_ctd1_6.47'> +4.6507069e+02 </wgt>
<wgt id='eftrwgt59_ctg_-0.809_cqq83_6.461_cqq81_5.164_cqu8_7.348_cqd8_-10.049_ctq8_-9.039_ctu8_11.156_ctd8_17.765_cqq13_2.406_cqq11_-3.454_cqu1_-8.251_cqd1_3.987_ctq1_-2.608_ctu1_-5.906_ctd1_-13.122'> +1.0223592e+03 </wgt>
<wgt id='eftrwgt60_ctg_0.321_cqq83_5.49_cqq81_9.481_cqu8_6.2_cqd8_6.877_ctq8_-2.766_ctu8_2.591_ctd8_5.007_cqq13_4.948_cqq11_-5.846_cqu1_1.836_cqd1_2.37_ctq1_3.758_ctu1_-2.994_ctd1_-9.755'> +4.4428818e+02 </wgt>
<wgt id='eftrwgt61_ctg_0.309_cqq83_13.504_cqq81_0.142_cqu8_15.303_cqd8_-11.281_ctq8_-13.865_ctu8_10.736_ctd8_-18.349_cqq13_0.658_cqq11_-2.407_cqu1_-8.659_cqd1_5.691_ctq1_0.834_ctu1_-7.918_ctd1_8.27'> +5.1827621e+02 </wgt>
<wgt id='eftrwgt62_ctg_-0.755_cqq83_1.09_cqq81_-2.059_cqu8_14.895_cqd8_0.941_ctq8_-0.117_ctu8_-3.607_ctd8_-7.303_cqq13_2.029_cqq11_-6.951_cqu1_-7.372_cqd1_-8.246_ctq1_-0.626_ctu1_-0.403_ctd1_-6.554'> +1.2754845e+02 </wgt>
<wgt id='eftrwgt63_ctg_-1.189_cqq83_3.274_cqq81_5.97_cqu8_-8.688_cqd8_14.017_ctq8_2.273_ctu8_14.433_ctd8_-19.069_cqq13_-4.403_cqq11_3.367_cqu1_-4.681_cqd1_10.796_ctq1_-4.846_ctu1_1.054_ctd1_-13.006'> +4.2178085e+02 </wgt>
<wgt id='eftrwgt64_ctg_0.949_cqq83_12.237_cqq81_-2.266_cqu8_-10.878_cqd8_-7.642_ctq8_-6.632_ctu8_-5.91_ctd8_22.286_cqq13_-6.42_cqq11_-0.839_cqu1_-9.914_cqd1_11.165_ctq1_5.728_ctu1_-2.834_ctd1_-11.273'> +8.9449513e+02 </wgt>
<wgt id='eftrwgt65_ctg_-1.077_cqq83_6.554_cqq81_-5.771_cqu8_-11.958_cqd8_-5.175_ctq8_6.893_ctu8_-15.271_ctd8_-11.605_cqq13_-2.625_cqq11_5.619_cqu1_-3.062_cqd1_8.844_ctq1_8.759_ctu1_7.743_ctd1_-9.404'> +2.3384565e+02 </wgt>
<wgt id='eftrwgt66_ctg_0.739_cqq83_-0.73_cqq81_-3.942_cqu8_0.197_cqd8_-20.568_ctq8_-3.855_ctu8_3.62_ctd8_-1.663_cqq13_1.279_cqq11_-5.868_cqu1_-1.596_cqd1_4.61_ctq1_-0.985_ctu1_5.278_ctd1_1.935'> +1.9314526e+01 </wgt>
<wgt id='eftrwgt67_ctg_-1.144_cqq83_-9.411_cqq81_11.632_cqu8_13.794_cqd8_19.35_ctq8_-9.734_ctu8_17.462_ctd8_-9.013_cqq13_6.095_cqq11_1.653_cqu1_10.71_cqd1_-11.055_ctq1_7.571_ctu1_0.484_ctd1_-1.685'> +7.6266424e+00 </wgt>
<wgt id='eftrwgt68_ctg_0.408_cqq83_3.73_cqq81_-12.673_cqu8_-15.054_cqd8_23.598_ctq8_0.269_ctu8_8.53_ctd8_-19.396_cqq13_1.648_cqq11_6.789_cqu1_-10.541_cqd1_-5.767_ctq1_-2.558_ctu1_-8.764_ctd1_1.857'> +1.1780866e+02 </wgt>
<wgt id='eftrwgt69_ctg_0.663_cqq83_-13.808_cqq81_11.681_cqu8_8.175_cqd8_23.585_ctq8_-6.295_ctu8_5.707_ctd8_-2.004_cqq13_2.652_cqq11_0.351_cqu1_-4.864_cqd1_13.53_ctq1_-5.642_ctu1_0.492_ctd1_8.029'> +2.7571724e+02 </wgt>
<wgt id='eftrwgt70_ctg_-0.454_cqq83_-0.455_cqq81_-2.236_cqu8_8.99_cqd8_14.139_ctq8_-10.102_ctu8_-6.093_ctd8_-2.425_cqq13_3.095_cqq11_-0.462_cqu1_-1.855_cqd1_11.152_ctq1_2.965_ctu1_0.951_ctd1_-6.03'> +1.2346560e+02 </wgt>
<wgt id='eftrwgt71_ctg_-0.477_cqq83_-16.758_cqq81_13.224_cqu8_13.232_cqd8_-5.763_ctq8_9.379_ctu8_-10.048_ctd8_-23.022_cqq13_4.391_cqq11_-6.178_cqu1_-8.099_cqd1_-8.009_ctq1_-1.03_ctu1_-2.674_ctd1_-1.681'> +6.0176349e+01 </wgt>
<wgt id='eftrwgt72_ctg_0.622_cqq83_2.696_cqq81_-10.207_cqu8_5.957_cqd8_7.886_ctq8_4.197_ctu8_8.121_ctd8_-20.035_cqq13_2.851_cqq11_-6.744_cqu1_-10.799_cqd1_2.202_ctq1_-7.508_ctu1_-1.701_ctd1_8.892'> +5.9488665e+02 </wgt>
<wgt id='eftrwgt73_ctg_-0.493_cqq83_10.355_cqq81_1.302_cqu8_-9.783_cqd8_-15.531_ctq8_-10.402_ctu8_5.144_ctd8_6.559_cqq13_5.572_cqq11_-0.688_cqu1_-7.729_cqd1_4.564_ctq1_-4.037_ctu1_3.296_ctd1_-5.207'> +1.5597203e+02 </wgt>
<wgt id='eftrwgt74_ctg_-1.313_cqq83_-14.474_cqq81_-0.652_cqu8_2.59_cqd8_16.401_ctq8_2.461_ctu8_-12.258_ctd8_-5.822_cqq13_6.708_cqq11_-5.017_cqu1_7.523_cqd1_10.388_ctq1_-3.975_ctu1_-5.142_ctd1_-12.623'> +5.3655354e+02 </wgt>
<wgt id='eftrwgt75_ctg_-0.166_cqq83_14.655_cqq81_-13.165_cqu8_13.182_cqd8_17.65_ctq8_8.035_ctu8_-7.41_ctd8_5.594_cqq13_-1.583_cqq11_4.47_cqu1_6.793_cqd1_9.148_ctq1_6.872_ctu1_4.564_ctd1_-3.17'> +6.7888334e+01 </wgt>
<wgt id='eftrwgt76_ctg_0.607_cqq83_-7.784_cqq81_0.889_cqu8_-5.808_cqd8_-18.52_ctq8_-10.702_ctu8_6.093_ctd8_5.795_cqq13_-4.86_cqq11_6.059_cqu1_5.977_cqd1_-3.82_ctq1_-0.432_ctu1_0.091_ctd1_12.704'> +5.3902204e+02 </wgt>
<wgt id='eftrwgt77_ctg_-0.008_cqq83_-13.549_cqq81_-2.371_cqu8_-17.548_cqd8_17.783_ctq8_-12.818_ctu8_-10.851_ctd8_-11.002_cqq13_-7.936_cqq11_-0.409_cqu1_4.737_cqd1_0.464_ctq1_-0.138_ctu1_-4.15_ctd1_2.286'> +6.9114819e+01 </wgt>
<wgt id='eftrwgt78_ctg_0.693_cqq83_-17.302_cqq81_-6.475_cqu8_7.814_cqd8_3.71_ctq8_7.916_ctu8_-4.439_ctd8_21.712_cqq13_-1.558_cqq11_5.054_cqu1_2.274_cqd1_7.748_ctq1_-4.741_ctu1_4.163_ctd1_-9.021'> +6.5139745e+02 </wgt>
<wgt id='eftrwgt79_ctg_-1.245_cqq83_-11.588_cqq81_7.305_cqu8_-18.227_cqd8_-8.677_ctq8_11.343_ctu8_2.055_ctd8_-10.604_cqq13_4.361_cqq11_6.251_cqu1_4.537_cqd1_-0.734_ctq1_3.998_ctu1_-6.261_ctd1_-5.045'> +5.6577164e+01 </wgt>
<wgt id='eftrwgt80_ctg_-0.18_cqq83_-10.265_cqq81_2.0_cqu8_-7.281_cqd8_10.418_ctq8_-8.392_ctu8_-11.821_ctd8_14.446_cqq13_4.32_cqq11_-7.909_cqu1_-1.266_cqd1_-1.485_ctq1_7.422_ctu1_-9.567_ctd1_-7.015'> +3.6842096e+02 </wgt>
<wgt id='eftrwgt81_ctg_0.953_cqq83_-15.744_cqq81_-8.719_cqu8_4.233_cqd8_5.5_ctq8_9.427_ctu8_-3.148_ctd8_13.913_cqq13_7.844_cqq11_-2.685_cqu1_-10.526_cqd1_-11.474_ctq1_1.94_ctu1_-0.862_ctd1_-11.271'> +7.5783772e+02 </wgt>
<wgt id='eftrwgt82_ctg_0.709_cqq83_-3.094_cqq81_5.584_cqu8_5.962_cqd8_-12.068_ctq8_7.256_ctu8_-14.777_ctd8_-14.389_cqq13_-4.278_cqq11_8.12_cqu1_0.179_cqd1_-1.651_ctq1_-8.145_ctu1_2.242_ctd1_-10.245'> +2.7441243e+02 </wgt>
<wgt id='eftrwgt83_ctg_0.687_cqq83_-1.156_cqq81_3.18_cqu8_-3.335_cqd8_-0.404_ctq8_-5.778_ctu8_6.62_ctd8_-17.153_cqq13_-5.912_cqq11_5.654_cqu1_-1.269_cqd1_8.004_ctq1_-1.868_ctu1_0.845_ctd1_4.292'> +2.1779652e+02 </wgt>
<wgt id='eftrwgt84_ctg_-0.183_cqq83_-0.308_cqq81_0.037_cqu8_14.309_cqd8_-5.805_ctq8_9.893_ctu8_-5.881_ctd8_-1.437_cqq13_-2.017_cqq11_-6.656_cqu1_-1.67_cqd1_-5.98_ctq1_-8.794_ctu1_2.683_ctd1_9.412'> +3.5228207e+02 </wgt>
<wgt id='eftrwgt85_ctg_-0.942_cqq83_15.035_cqq81_13.373_cqu8_-5.07_cqd8_16.019_ctq8_-8.366_ctu8_14.649_ctd8_22.16_cqq13_-4.681_cqq11_6.562_cqu1_-1.143_cqd1_-10.901_ctq1_-6.626_ctu1_7.385_ctd1_-3.635'> +2.6248957e+02 </wgt>
<wgt id='eftrwgt86_ctg_-0.142_cqq83_-2.994_cqq81_12.042_cqu8_8.306_cqd8_-8.182_ctq8_-12.155_ctu8_-0.571_ctd8_11.633_cqq13_-5.051_cqq11_1.519_cqu1_-1.733_cqd1_9.994_ctq1_-6.524_ctu1_4.94_ctd1_2.118'> +1.4331351e+01 </wgt>
<wgt id='eftrwgt87_ctg_0.929_cqq83_16.258_cqq81_4.432_cqu8_11.37_cqd8_2.732_ctq8_-0.209_ctu8_11.238_ctd8_0.002_cqq13_-3.184_cqq11_5.425_cqu1_-3.268_cqd1_11.628_ctq1_2.342_ctu1_-8.392_ctd1_13.454'> +7.1563156e+02 </wgt>
<wgt id='eftrwgt88_ctg_0.663_cqq83_-0.312_cqq81_4.634_cqu8_13.091_cqd8_20.152_ctq8_-11.08_ctu8_10.132_ctd8_8.016_cqq13_2.666_cqq11_-0.154_cqu1_10.589_cqd1_-1.792_ctq1_-0.235_ctu1_-1.608_ctd1_11.236'> +3.8514251e+02 </wgt>
<wgt id='eftrwgt89_ctg_-0.7_cqq83_-8.489_cqq81_-4.248_cqu8_-16.694_cqd8_11.319_ctq8_10.136_ctu8_16.621_ctd8_-12.449_cqq13_5.869_cqq11_0.2_cqu1_7.255_cqd1_6.776_ctq1_-7.91_ctu1_7.893_ctd1_-13.519'> +5.3845839e+02 </wgt>
<wgt id='eftrwgt90_ctg_1.035_cqq83_-14.726_cqq81_-10.269_cqu8_8.762_cqd8_-16.804_ctq8_-12.281_ctu8_-9.071_ctd8_-18.776_cqq13_-0.931_cqq11_-5.226_cqu1_2.228_cqd1_0.749_ctq1_4.043_ctu1_-9.625_ctd1_12.055'> +9.0718996e+02 </wgt>
<wgt id='eftrwgt91_ctg_0.582_cqq83_7.693_cqq81_-11.295_cqu8_-2.266_cqd8_14.634_ctq8_4.883_ctu8_17.79_ctd8_11.844_cqq13_-6.479_cqq11_-4.102_cqu1_2.603_cqd1_-3.346_ctq1_-0.515_ctu1_-6.838_ctd1_-11.52'> +7.3429059e+02 </wgt>
<wgt id='eftrwgt92_ctg_-1.029_cqq83_4.889_cqq81_-11.405_cqu8_13.309_cqd8_-14.979_ctq8_-5.195_ctu8_6.668_ctd8_-24.798_cqq13_5.441_cqq11_-0.506_cqu1_-0.753_cqd1_-13.543_ctq1_-8.67_ctu1_-7.915_ctd1_-0.334'> +1.0004374e+02 </wgt>
<wgt id='eftrwgt93_ctg_1.323_cqq83_-4.365_cqq81_-4.298_cqu8_7.237_cqd8_-13.74_ctq8_-0.526_ctu8_-16.032_ctd8_-23.867_cqq13_-2.711_cqq11_8.204_cqu1_-9.783_cqd1_-13.301_ctq1_5.357_ctu1_-4.585_ctd1_3.272'> +2.3058475e+02 </wgt>
<wgt id='eftrwgt94_ctg_0.923_cqq83_-5.687_cqq81_-9.274_cqu8_-6.946_cqd8_-18.634_ctq8_-2.87_ctu8_-10.48_ctd8_20.825_cqq13_0.818_cqq11_7.594_cqu1_-2.651_cqd1_-8.209_ctq1_-4.375_ctu1_-0.453_ctd1_-11.307'> +8.9380371e+02 </wgt>
<wgt id='eftrwgt95_ctg_-0.353_cqq83_16.887_cqq81_4.599_cqu8_5.271_cqd8_15.7_ctq8_9.777_ctu8_16.081_ctd8_11.396_cqq13_-1.084_cqq11_-4.79_cqu1_-0.778_cqd1_12.085_ctq1_-5.567_ctu1_-7.961_ctd1_2.198'> +1.4843803e+01 </wgt>
<wgt id='eftrwgt96_ctg_0.041_cqq83_-5.923_cqq81_-2.955_cqu8_4.903_cqd8_20.523_ctq8_-10.841_ctu8_-16.659_ctd8_-20.437_cqq13_-0.715_cqq11_3.365_cqu1_7.617_cqd1_-8.653_ctq1_-1.465_ctu1_-1.263_ctd1_-7.434'> +1.1521963e+02 </wgt>
<wgt id='eftrwgt97_ctg_0.464_cqq83_6.456_cqq81_3.991_cqu8_-17.621_cqd8_21.05_ctq8_-3.045_ctu8_-1.74_ctd8_-0.321_cqq13_-0.503_cqq11_-7.685_cqu1_3.634_cqd1_-8.072_ctq1_-8.465_ctu1_4.741_ctd1_-8.716'> +3.1159889e+02 </wgt>
<wgt id='eftrwgt98_ctg_1.109_cqq83_-17.675_cqq81_-12.841_cqu8_-7.769_cqd8_-4.881_ctq8_8.767_ctu8_1.909_ctd8_-17.434_cqq13_5.514_cqq11_4.151_cqu1_-4.537_cqd1_10.377_ctq1_-0.495_ctu1_-9.214_ctd1_-2.18'> +2.8390083e+01 </wgt>
<wgt id='eftrwgt99_ctg_0.407_cqq83_-15.227_cqq81_3.076_cqu8_16.069_cqd8_-14.34_ctq8_-10.144_ctu8_-13.132_ctd8_6.768_cqq13_-2.495_cqq11_-6.097_cqu1_-9.127_cqd1_6.952_ctq1_6.568_ctu1_4.211_ctd1_13.935'> +6.5816825e+02 </wgt>
<wgt id='eftrwgt100_ctg_-0.701_cqq83_-0.048_cqq81_-13.163_cqu8_5.634_cqd8_10.956_ctq8_-0.744_ctu8_7.675_ctd8_11.807_cqq13_5.749_cqq11_-2.151_cqu1_8.431_cqd1_-6.532_ctq1_6.71_ctu1_1.894_ctd1_-1.052'> +5.2315257e+01 </wgt>
<wgt id='eftrwgt101_ctg_-0.35_cqq83_14.955_cqq81_13.247_cqu8_12.366_cqd8_-17.494_ctq8_13.947_ctu8_15.163_ctd8_24.316_cqq13_-3.799_cqq11_-3.202_cqu1_6.22_cqd1_12.06_ctq1_-5.011_ctu1_-3.243_ctd1_-4.236'> +3.0315922e+02 </wgt>
<wgt id='eftrwgt102_ctg_0.556_cqq83_-5.267_cqq81_-10.439_cqu8_2.364_cqd8_0.675_ctq8_-12.861_ctu8_-7.633_ctd8_-19.227_cqq13_7.964_cqq11_-4.314_cqu1_-5.928_cqd1_-4.03_ctq1_5.914_ctu1_5.907_ctd1_11.347'> +8.2374948e+02 </wgt>
<wgt id='eftrwgt103_ctg_0.125_cqq83_-12.646_cqq81_10.46_cqu8_18.952_cqd8_-13.688_ctq8_-9.243_ctu8_-14.143_ctd8_-9.888_cqq13_-8.119_cqq11_3.122_cqu1_8.657_cqd1_7.658_ctq1_-7.962_ctu1_3.664_ctd1_-2.552'> +1.2136403e+01 </wgt>
<wgt id='eftrwgt104_ctg_-0.763_cqq83_-3.804_cqq81_11.607_cqu8_-13.419_cqd8_14.176_ctq8_-9.066_ctu8_-15.02_ctd8_-4.358_cqq13_-1.193_cqq11_-6.481_cqu1_4.998_cqd1_-9.789_ctq1_1.777_ctu1_10.322_ctd1_2.64'> +3.8311182e+01 </wgt>
<wgt id='eftrwgt105_ctg_-1.088_cqq83_12.665_cqq81_-11.087_cqu8_18.548_cqd8_-4.797_ctq8_-2.92_ctu8_2.89_ctd8_13.714_cqq13_6.529_cqq11_2.903_cqu1_9.448_cqd1_-11.012_ctq1_-0.553_ctu1_-10.792_ctd1_7.312'> +1.1470856e+02 </wgt>
<wgt id='eftrwgt106_ctg_-0.66_cqq83_13.87_cqq81_-10.837_cqu8_-12.598_cqd8_7.858_ctq8_-12.118_ctu8_-7.151_ctd8_16.078_cqq13_4.226_cqq11_0.29_cqu1_-10.828_cqd1_12.788_ctq1_7.2_ctu1_2.803_ctd1_-12.185'> +8.6410323e+02 </wgt>
<wgt id='eftrwgt107_ctg_0.987_cqq83_4.124_cqq81_-7.722_cqu8_-17.904_cqd8_-9.465_ctq8_-8.335_ctu8_11.217_ctd8_22.691_cqq13_-5.276_cqq11_2.989_cqu1_7.593_cqd1_-5.045_ctq1_1.607_ctu1_3.552_ctd1_13.817'> +4.5186046e+02 </wgt>
<wgt id='eftrwgt108_ctg_-0.161_cqq83_-2.662_cqq81_-3.151_cqu8_9.405_cqd8_-12.787_ctq8_6.797_ctu8_12.29_ctd8_-20.381_cqq13_6.286_cqq11_-1.665_cqu1_-10.66_cqd1_13.551_ctq1_-0.592_ctu1_-10.77_ctd1_-11.103'> +2.7498549e+02 </wgt>
<wgt id='eftrwgt109_ctg_-0.866_cqq83_17.321_cqq81_-1.402_cqu8_15.303_cqd8_-9.712_ctq8_-2.135_ctu8_4.236_ctd8_-2.625_cqq13_6.154_cqq11_-5.703_cqu1_2.095_cqd1_6.678_ctq1_-8.391_ctu1_-3.925_ctd1_1.624'> +1.7306190e+01 </wgt>
<wgt id='eftrwgt110_ctg_0.155_cqq83_-16.958_cqq81_-11.926_cqu8_-4.429_cqd8_12.271_ctq8_12.349_ctu8_9.754_ctd8_-5.943_cqq13_1.387_cqq11_-2.925_cqu1_8.241_cqd1_-0.988_ctq1_8.274_ctu1_-10.609_ctd1_-7.304'> +1.6824878e+02 </wgt>
<wgt id='eftrwgt111_ctg_-1.065_cqq83_14.73_cqq81_-1.172_cqu8_-15.353_cqd8_0.237_ctq8_10.108_ctu8_4.492_ctd8_24.01_cqq13_-1.328_cqq11_0.667_cqu1_-2.509_cqd1_0.719_ctq1_0.384_ctu1_-8.496_ctd1_-3.168'> +2.4858521e+02 </wgt>
<wgt id='eftrwgt112_ctg_0.963_cqq83_-9.182_cqq81_0.049_cqu8_8.605_cqd8_-14.263_ctq8_8.142_ctu8_-8.43_ctd8_-11.958_cqq13_-2.649_cqq11_1.046_cqu1_6.616_cqd1_7.998_ctq1_1.189_ctu1_-6.255_ctd1_6.95'> +3.2081868e+02 </wgt>
<wgt id='eftrwgt113_ctg_1.026_cqq83_-11.499_cqq81_-5.535_cqu8_17.173_cqd8_3.883_ctq8_-9.651_ctu8_-11.427_ctd8_18.837_cqq13_6.015_cqq11_6.509_cqu1_10.344_cqd1_-2.658_ctq1_-2.985_ctu1_-3.104_ctd1_9.041'> +1.7467954e+02 </wgt>
<wgt id='eftrwgt114_ctg_1.167_cqq83_14.15_cqq81_-2.248_cqu8_-3.57_cqd8_15.163_ctq8_-12.657_ctu8_5.129_ctd8_6.614_cqq13_-6.863_cqq11_-3.391_cqu1_-0.777_cqd1_-2.994_ctq1_1.952_ctu1_-7.447_ctd1_11.847'> +4.4858062e+02 </wgt>
<wgt id='eftrwgt115_ctg_0.982_cqq83_-16.13_cqq81_-2.864_cqu8_-3.251_cqd8_13.648_ctq8_-3.377_ctu8_-15.255_ctd8_-20.505_cqq13_6.864_cqq11_6.065_cqu1_1.403_cqd1_13.412_ctq1_6.891_ctu1_-5.305_ctd1_6.959'> +4.4686271e+02 </wgt>
<wgt id='eftrwgt116_ctg_0.484_cqq83_-5.877_cqq81_-0.844_cqu8_-8.226_cqd8_-12.543_ctq8_-7.938_ctu8_-14.308_ctd8_-16.759_cqq13_3.295_cqq11_-4.935_cqu1_1.553_cqd1_-2.747_ctq1_1.896_ctu1_-2.598_ctd1_1.468'> +8.7664633e+01 </wgt>
<wgt id='eftrwgt117_ctg_-0.766_cqq83_13.005_cqq81_4.278_cqu8_-5.789_cqd8_-2.642_ctq8_1.928_ctu8_-17.627_ctd8_13.206_cqq13_-3.352_cqq11_-4.623_cqu1_1.281_cqd1_-0.353_ctq1_-7.888_ctu1_-2.739_ctd1_-3.691'> +1.5124873e+02 </wgt>
<wgt id='eftrwgt118_ctg_-0.026_cqq83_16.863_cqq81_-3.657_cqu8_-14.653_cqd8_19.452_ctq8_-11.093_ctu8_7.169_ctd8_12.713_cqq13_2.219_cqq11_6.829_cqu1_-1.47_cqd1_13.329_ctq1_-8.726_ctu1_4.506_ctd1_-6.731'> +3.1156555e+02 </wgt>
<wgt id='eftrwgt119_ctg_-0.927_cqq83_14.324_cqq81_12.494_cqu8_-15.766_cqd8_-22.63_ctq8_7.771_ctu8_17.012_ctd8_-4.27_cqq13_-4.263_cqq11_7.096_cqu1_5.583_cqd1_7.465_ctq1_3.841_ctu1_9.204_ctd1_12.312'> +6.6967474e+02 </wgt>
<wgt id='eftrwgt120_ctg_-1.301_cqq83_2.61_cqq81_-0.228_cqu8_-13.019_cqd8_-7.21_ctq8_-10.88_ctu8_-12.7_ctd8_-9.515_cqq13_3.421_cqq11_-0.285_cqu1_-1.252_cqd1_-3.317_ctq1_7.885_ctu1_3.534_ctd1_11.001'> +6.0914251e+02 </wgt>
<wgt id='eftrwgt121_ctg_0.544_cqq83_-11.95_cqq81_-0.044_cqu8_-3.43_cqd8_-3.87_ctq8_-7.539_ctu8_-14.796_ctd8_-19.179_cqq13_3.035_cqq11_-7.307_cqu1_1.661_cqd1_-9.45_ctq1_-2.9_ctu1_7.446_ctd1_-4.846'> +4.9510263e+01 </wgt>
<wgt id='eftrwgt122_ctg_0.077_cqq83_12.997_cqq81_8.942_cqu8_-12.333_cqd8_-21.55_ctq8_8.94_ctu8_12.874_ctd8_-23.03_cqq13_7.882_cqq11_-0.681_cqu1_1.4_cqd1_6.361_ctq1_-0.884_ctu1_-0.375_ctd1_1.214'> +1.4201170e+02 </wgt>
<wgt id='eftrwgt123_ctg_-1.357_cqq83_9.311_cqq81_-6.821_cqu8_-3.271_cqd8_-16.074_ctq8_9.326_ctu8_14.404_ctd8_-2.447_cqq13_3.173_cqq11_-3.404_cqu1_2.525_cqd1_5.494_ctq1_-7.91_ctu1_-0.974_ctd1_4.439'> +9.3072753e+01 </wgt>
<wgt id='eftrwgt124_ctg_-1.223_cqq83_-12.321_cqq81_-7.848_cqu8_-2.265_cqd8_-5.02_ctq8_-13.565_ctu8_-9.074_ctd8_2.046_cqq13_-4.347_cqq11_5.557_cqu1_1.21_cqd1_-2.046_ctq1_-6.903_ctu1_-4.355_ctd1_2.297'> +1.4485624e+01 </wgt>
<wgt id='eftrwgt125_ctg_0.961_cqq83_6.0_cqq81_5.561_cqu8_-3.626_cqd8_-19.356_ctq8_-2.864_ctu8_-0.243_ctd8_23.255_cqq13_-8.112_cqq11_-5.996_cqu1_9.108_cqd1_-10.685_ctq1_-6.426_ctu1_-1.269_ctd1_3.35'> +5.3752613e+01 </wgt>
<wgt id='eftrwgt126_ctg_0.285_cqq83_-16.325_cqq81_0.476_cqu8_-16.347_cqd8_22.521_ctq8_-0.468_ctu8_-2.288_ctd8_22.57_cqq13_-7.864_cqq11_-2.689_cqu1_6.85_cqd1_8.701_ctq1_6.612_ctu1_10.799_ctd1_5.338'> +6.4666398e+01 </wgt>
<wgt id='eftrwgt127_ctg_-1.378_cqq83_-17.314_cqq81_-12.704_cqu8_-6.427_cqd8_-12.718_ctq8_4.311_ctu8_-7.334_ctd8_-24.506_cqq13_-8.01_cqq11_5.874_cqu1_0.468_cqd1_8.191_ctq1_-0.277_ctu1_8.517_ctd1_-7.478'> +1.0548126e+02 </wgt>
<wgt id='eftrwgt128_ctg_1.18_cqq83_-1.471_cqq81_2.433_cqu8_10.198_cqd8_23.306_ctq8_-12.125_ctu8_16.403_ctd8_18.18_cqq13_7.781_cqq11_-2.869_cqu1_-7.593_cqd1_-6.942_ctq1_0.572_ctu1_3.932_ctd1_-1.468'> +1.1633377e+02 </wgt>
<wgt id='eftrwgt129_ctg_0.941_cqq83_-4.592_cqq81_6.49_cqu8_-5.317_cqd8_16.947_ctq8_12.635_ctu8_-5.132_ctd8_22.403_cqq13_2.333_cqq11_-2.444_cqu1_7.188_cqd1_-3.684_ctq1_-5.675_ctu1_-4.027_ctd1_-1.358'> +1.5131039e+02 </wgt>
<wgt id='eftrwgt130_ctg_-0.208_cqq83_-17.622_cqq81_-2.397_cqu8_15.786_cqd8_15.249_ctq8_-1.44_ctu8_10.097_ctd8_-10.056_cqq13_-3.196_cqq11_4.986_cqu1_-0.332_cqd1_-13.619_ctq1_2.563_ctu1_1.892_ctd1_2.648'> +6.8194913e+01 </wgt>
<wgt id='eftrwgt131_ctg_1.247_cqq83_-17.63_cqq81_-10.818_cqu8_5.208_cqd8_0.681_ctq8_12.537_ctu8_-14.866_ctd8_3.091_cqq13_2.337_cqq11_-5.924_cqu1_5.379_cqd1_5.986_ctq1_-5.666_ctu1_10.553_ctd1_1.395'> +4.4557913e+00 </wgt>
<wgt id='eftrwgt132_ctg_-0.801_cqq83_7.262_cqq81_9.212_cqu8_-8.732_cqd8_-8.091_ctq8_-1.906_ctu8_3.948_ctd8_13.123_cqq13_2.692_cqq11_8.195_cqu1_0.96_cqd1_-1.571_ctq1_5.243_ctu1_-1.861_ctd1_-9.371'> +5.3634739e+02 </wgt>
<wgt id='eftrwgt133_ctg_-1.257_cqq83_16.117_cqq81_-9.715_cqu8_-7.571_cqd8_1.07_ctq8_2.477_ctu8_-7.002_ctd8_13.477_cqq13_-0.711_cqq11_7.763_cqu1_-6.041_cqd1_-7.251_ctq1_-2.998_ctu1_-2.904_ctd1_-12.567'> +8.8323718e+02 </wgt>
<wgt id='eftrwgt134_ctg_1.354_cqq83_-7.657_cqq81_-1.021_cqu8_-16.291_cqd8_1.184_ctq8_-2.275_ctu8_16.917_ctd8_-5.942_cqq13_5.969_cqq11_3.289_cqu1_-10.263_cqd1_4.064_ctq1_8.35_ctu1_-0.11_ctd1_0.257'> +7.7309595e+00 </wgt>
<wgt id='eftrwgt135_ctg_-0.715_cqq83_-9.614_cqq81_-10.763_cqu8_9.461_cqd8_21.044_ctq8_0.83_ctu8_16.276_ctd8_17.397_cqq13_7.427_cqq11_-7.592_cqu1_5.575_cqd1_-12.777_ctq1_0.413_ctu1_-0.337_ctd1_5.614'> +5.7560451e+01 </wgt>
<wgt id='eftrwgt136_ctg_1.148_cqq83_9.105_cqq81_7.25_cqu8_15.489_cqd8_-14.113_ctq8_-1.534_ctu8_-4.722_ctd8_-14.085_cqq13_7.64_cqq11_5.644_cqu1_6.289_cqd1_-3.464_ctq1_-4.467_ctu1_10.661_ctd1_-10.103'> +2.6927376e+02 </wgt>
<wgt id='eftrwgt137_ctg_0.519_cqq83_-3.88_cqq81_5.428_cqu8_-11.688_cqd8_12.458_ctq8_5.584_ctu8_4.192_ctd8_-4.494_cqq13_0.22_cqq11_6.429_cqu1_0.379_cqd1_-2.464_ctq1_3.48_ctu1_8.707_ctd1_10.184'> +4.5272428e+02 </wgt>
<wgt id='eftrwgt138_ctg_0.044_cqq83_15.014_cqq81_-2.24_cqu8_-0.07_cqd8_15.723_ctq8_4.233_ctu8_15.378_ctd8_22.326_cqq13_5.742_cqq11_-7.973_cqu1_5.127_cqd1_8.3_ctq1_-2.237_ctu1_-6.818_ctd1_9.184'> +1.7708596e+02 </wgt>
<wgt id='eftrwgt139_ctg_0.536_cqq83_3.108_cqq81_-2.815_cqu8_17.298_cqd8_-20.517_ctq8_-0.558_ctu8_5.522_ctd8_9.105_cqq13_7.706_cqq11_-1.121_cqu1_6.904_cqd1_-8.677_ctq1_0.168_ctu1_4.991_ctd1_3.884'> +2.8911573e+01 </wgt>
<wgt id='eftrwgt140_ctg_-1.222_cqq83_14.489_cqq81_7.936_cqu8_-5.001_cqd8_-7.099_ctq8_0.704_ctu8_-16.077_ctd8_15.282_cqq13_3.777_cqq11_4.884_cqu1_-3.897_cqd1_-3.233_ctq1_-0.56_ctu1_1.21_ctd1_-11.922'> +8.3794726e+02 </wgt>
<wgt id='eftrwgt141_ctg_-0.595_cqq83_-16.264_cqq81_7.534_cqu8_-4.512_cqd8_17.409_ctq8_3.217_ctu8_-8.193_ctd8_8.464_cqq13_-7.686_cqq11_-1.06_cqu1_4.135_cqd1_9.485_ctq1_-2.481_ctu1_4.42_ctd1_3.636'> +2.9240580e+01 </wgt>
<wgt id='eftrwgt142_ctg_1.208_cqq83_4.059_cqq81_6.781_cqu8_-5.717_cqd8_-21.408_ctq8_0.083_ctu8_14.943_ctd8_11.388_cqq13_0.694_cqq11_-5.103_cqu1_-7.402_cqd1_13.43_ctq1_3.406_ctu1_2.945_ctd1_5.188'> +6.2135089e+01 </wgt>
<wgt id='eftrwgt143_ctg_0.787_cqq83_2.859_cqq81_-12.404_cqu8_17.905_cqd8_18.147_ctq8_5.594_ctu8_13.171_ctd8_-8.3_cqq13_-1.709_cqq11_3.715_cqu1_-2.267_cqd1_0.319_ctq1_-2.513_ctu1_-6.093_ctd1_0.66'> +1.8338269e+01 </wgt>
<wgt id='eftrwgt144_ctg_0.369_cqq83_12.119_cqq81_10.451_cqu8_-4.308_cqd8_10.751_ctq8_2.903_ctu8_-16.453_ctd8_12.168_cqq13_-7.8_cqq11_-4.495_cqu1_-7.968_cqd1_-11.778_ctq1_-0.673_ctu1_9.838_ctd1_7.574'> +1.2954245e+02 </wgt>
<wgt id='eftrwgt145_ctg_-0.314_cqq83_-7.538_cqq81_9.523_cqu8_-0.965_cqd8_7.921_ctq8_-3.669_ctu8_-17.137_ctd8_13.302_cqq13_-0.272_cqq11_-1.659_cqu1_-4.888_cqd1_2.565_ctq1_-4.075_ctu1_7.665_ctd1_4.628'> +4.2530094e+01 </wgt>
<wgt id='eftrwgt146_ctg_-0.028_cqq83_17.018_cqq81_4.288_cqu8_2.423_cqd8_9.91_ctq8_-1.803_ctu8_-7.374_ctd8_-22.743_cqq13_1.412_cqq11_1.518_cqu1_-5.031_cqd1_4.621_ctq1_-2.805_ctu1_-7.971_ctd1_2.504'> +1.8813282e+02 </wgt>
<wgt id='eftrwgt147_ctg_0.512_cqq83_9.531_cqq81_-2.016_cqu8_15.155_cqd8_-1.954_ctq8_-13.237_ctu8_1.868_ctd8_5.908_cqq13_-7.773_cqq11_7.257_cqu1_4.489_cqd1_2.963_ctq1_-3.777_ctu1_5.458_ctd1_-6.432'> +2.1877189e+02 </wgt>
<wgt id='eftrwgt148_ctg_-0.482_cqq83_17.097_cqq81_10.457_cqu8_-6.705_cqd8_-13.185_ctq8_-4.371_ctu8_14.509_ctd8_-13.32_cqq13_1.822_cqq11_0.354_cqu1_7.002_cqd1_10.541_ctq1_5.822_ctu1_5.744_ctd1_-13.15'> +4.8740764e+02 </wgt>
<wgt id='eftrwgt149_ctg_-0.905_cqq83_0.86_cqq81_-13.515_cqu8_11.771_cqd8_-1.866_ctq8_13.439_ctu8_0.144_ctd8_13.675_cqq13_-5.569_cqq11_-7.731_cqu1_1.84_cqd1_3.468_ctq1_-5.507_ctu1_1.982_ctd1_-13.061'> +9.2755863e+02 </wgt>
<wgt id='eftrwgt150_ctg_0.0_cqq83_-11.426_cqq81_-6.524_cqu8_-16.088_cqd8_-21.27_ctq8_10.524_ctu8_14.233_ctd8_17.255_cqq13_4.89_cqq11_-4.416_cqu1_4.918_cqd1_-11.767_ctq1_1.268_ctu1_3.231_ctd1_-6.475'> +3.7403123e+02 </wgt>
<wgt id='eftrwgt151_ctg_-0.918_cqq83_-17.499_cqq81_-6.826_cqu8_10.016_cqd8_16.971_ctq8_1.599_ctu8_16.783_ctd8_5.312_cqq13_-2.351_cqq11_-1.209_cqu1_0.269_cqd1_-8.867_ctq1_-7.829_ctu1_-1.326_ctd1_-0.175'> +9.5511654e+00 </wgt>
<wgt id='eftrwgt152_ctg_-0.246_cqq83_8.939_cqq81_-6.847_cqu8_-18.344_cqd8_21.999_ctq8_6.606_ctu8_9.509_ctd8_17.198_cqq13_-1.071_cqq11_7.466_cqu1_-6.387_cqd1_-1.912_ctq1_8.495_ctu1_-3.261_ctd1_8.87'> +1.7271886e+02 </wgt>
<wgt id='eftrwgt153_ctg_0.903_cqq83_-16.714_cqq81_4.491_cqu8_13.339_cqd8_3.836_ctq8_10.658_ctu8_1.169_ctd8_-12.868_cqq13_-4.118_cqq11_5.124_cqu1_5.936_cqd1_-5.521_ctq1_-6.529_ctu1_-3.471_ctd1_-8.961'> +2.1316597e+02 </wgt>
<wgt id='eftrwgt154_ctg_-0.773_cqq83_-11.295_cqq81_11.399_cqu8_12.409_cqd8_-7.958_ctq8_-6.63_ctu8_17.921_ctd8_-4.387_cqq13_-1.075_cqq11_-3.648_cqu1_0.733_cqd1_9.925_ctq1_-5.979_ctu1_6.286_ctd1_-8.945'> +2.6370948e+02 </wgt>
<wgt id='eftrwgt155_ctg_-1.155_cqq83_10.436_cqq81_11.789_cqu8_11.375_cqd8_0.293_ctq8_-12.103_ctu8_-1.324_ctd8_-13.307_cqq13_0.647_cqq11_-1.508_cqu1_4.529_cqd1_-4.847_ctq1_-1.864_ctu1_7.458_ctd1_-2.56'> +1.7072712e+01 </wgt>
<wgt id='eftrwgt156_ctg_1.116_cqq83_-1.502_cqq81_7.154_cqu8_-6.575_cqd8_-19.147_ctq8_-2.196_ctu8_15.471_ctd8_-13.501_cqq13_6.413_cqq11_3.8_cqu1_-1.927_cqd1_3.978_ctq1_3.939_ctu1_-0.696_ctd1_7.298'> +3.6341298e+02 </wgt>
<wgt id='eftrwgt157_ctg_-0.739_cqq83_2.709_cqq81_13.851_cqu8_9.744_cqd8_-15.601_ctq8_-3.406_ctu8_0.534_ctd8_13.826_cqq13_-5.94_cqq11_0.154_cqu1_4.119_cqd1_-0.999_ctq1_7.262_ctu1_1.145_ctd1_4.349'> +3.6557952e+01 </wgt>
<wgt id='eftrwgt158_ctg_-0.16_cqq83_8.752_cqq81_-10.353_cqu8_13.772_cqd8_-19.74_ctq8_1.97_ctu8_-17.022_ctd8_-15.946_cqq13_4.368_cqq11_-3.748_cqu1_-3.331_cqd1_1.681_ctq1_0.02_ctu1_3.467_ctd1_11.988'> +8.4334479e+02 </wgt>
<wgt id='eftrwgt159_ctg_-0.773_cqq83_-5.383_cqq81_11.182_cqu8_14.253_cqd8_22.486_ctq8_4.123_ctu8_16.717_ctd8_16.197_cqq13_7.633_cqq11_3.65_cqu1_3.518_cqd1_4.557_ctq1_0.213_ctu1_-8.115_ctd1_5.813'> +6.7869044e+01 </wgt>
<wgt id='eftrwgt160_ctg_-0.954_cqq83_13.029_cqq81_10.509_cqu8_2.914_cqd8_-7.008_ctq8_3.519_ctu8_-4.882_ctd8_-8.587_cqq13_-4.654_cqq11_6.741_cqu1_-8.034_cqd1_8.536_ctq1_7.776_ctu1_8.243_ctd1_-6.062'> +9.1408310e+01 </wgt>
<wgt id='eftrwgt161_ctg_0.783_cqq83_-0.823_cqq81_-10.667_cqu8_6.458_cqd8_-6.599_ctq8_5.205_ctu8_-17.575_ctd8_-8.783_cqq13_-6.096_cqq11_-7.308_cqu1_-4.219_cqd1_4.937_ctq1_-6.352_ctu1_4.953_ctd1_3.017'> +8.1669411e+01 </wgt>
<wgt id='eftrwgt162_ctg_-0.671_cqq83_16.815_cqq81_-12.317_cqu8_1.448_cqd8_10.899_ctq8_4.606_ctu8_-11.122_ctd8_-10.201_cqq13_4.82_cqq11_3.575_cqu1_-8.572_cqd1_11.857_ctq1_5.276_ctu1_-9.587_ctd1_8.531'> +4.1554535e+02 </wgt>
<wgt id='eftrwgt163_ctg_1.242_cqq83_16.122_cqq81_-8.636_cqu8_-5.852_cqd8_7.335_ctq8_-5.7_ctu8_-13.545_ctd8_24.321_cqq13_5.114_cqq11_-6.63_cqu1_-4.255_cqd1_8.437_ctq1_-6.875_ctu1_9.128_ctd1_2.843'> +6.3179170e+01 </wgt>
<wgt id='eftrwgt164_ctg_1.092_cqq83_-5.055_cqq81_-8.599_cqu8_4.203_cqd8_-7.68_ctq8_-11.588_ctu8_0.276_ctd8_17.336_cqq13_-7.727_cqq11_-5.834_cqu1_-7.894_cqd1_-13.963_ctq1_8.207_ctu1_2.956_ctd1_-11.592'> +8.6371032e+02 </wgt>
<wgt id='eftrwgt165_ctg_0.595_cqq83_4.636_cqq81_-0.11_cqu8_-0.581_cqd8_-20.832_ctq8_-0.558_ctu8_4.659_ctd8_14.601_cqq13_-7.948_cqq11_3.039_cqu1_4.976_cqd1_-0.906_ctq1_-5.244_ctu1_-2.665_ctd1_-11.849'> +8.1072198e+02 </wgt>
<wgt id='eftrwgt166_ctg_1.216_cqq83_5.127_cqq81_1.484_cqu8_12.31_cqd8_15.332_ctq8_-1.18_ctu8_2.062_ctd8_7.64_cqq13_-3.138_cqq11_3.748_cqu1_-2.564_cqd1_-4.289_ctq1_4.03_ctu1_7.302_ctd1_-7.704'> +3.3091270e+02 </wgt>
<wgt id='eftrwgt167_ctg_1.033_cqq83_5.72_cqq81_-1.985_cqu8_-0.401_cqd8_0.76_ctq8_-4.788_ctu8_5.904_ctd8_-7.804_cqq13_5.806_cqq11_-6.292_cqu1_-1.952_cqd1_-8.265_ctq1_2.846_ctu1_-6.057_ctd1_7.749'> +3.0524794e+02 </wgt>
<wgt id='eftrwgt168_ctg_-0.37_cqq83_17.55_cqq81_9.651_cqu8_-15.831_cqd8_-2.866_ctq8_-6.609_ctu8_-14.397_ctd8_5.753_cqq13_5.663_cqq11_-8.112_cqu1_-9.915_cqd1_6.099_ctq1_-0.019_ctu1_-1.021_ctd1_-5.252'> +1.5163398e+02 </wgt>
<wgt id='eftrwgt169_ctg_-1.172_cqq83_17.994_cqq81_-4.282_cqu8_-10.241_cqd8_-2.149_ctq8_-9.811_ctu8_-0.052_ctd8_20.563_cqq13_0.796_cqq11_-3.46_cqu1_8.811_cqd1_-11.665_ctq1_2.613_ctu1_-2.034_ctd1_-11.62'> +9.3221466e+02 </wgt>
<wgt id='eftrwgt170_ctg_-1.173_cqq83_-5.111_cqq81_9.87_cqu8_12.84_cqd8_15.747_ctq8_6.145_ctu8_16.166_ctd8_21.901_cqq13_1.621_cqq11_-4.815_cqu1_-6.967_cqd1_-9.672_ctq1_8.708_ctu1_-3.905_ctd1_5.596'> +6.2850964e+01 </wgt>
<wgt id='eftrwgt171_ctg_-0.487_cqq83_-3.728_cqq81_-2.089_cqu8_-8.617_cqd8_-3.165_ctq8_5.221_ctu8_-6.935_ctd8_-10.922_cqq13_2.93_cqq11_-3.943_cqu1_0.026_cqd1_10.454_ctq1_1.412_ctu1_-4.837_ctd1_4.419'> +1.6099588e+02 </wgt>
<wgt id='eftrwgt172_ctg_0.395_cqq83_8.99_cqq81_-3.002_cqu8_-13.401_cqd8_-8.393_ctq8_6.268_ctu8_10.287_ctd8_3.578_cqq13_-0.326_cqq11_0.491_cqu1_-1.452_cqd1_0.292_ctq1_2.055_ctu1_8.333_ctd1_-11.0'> +5.3145650e+02 </wgt>
<wgt id='eftrwgt173_ctg_-0.268_cqq83_-9.609_cqq81_-10.088_cqu8_-10.258_cqd8_2.411_ctq8_-9.923_ctu8_-12.813_ctd8_-11.549_cqq13_-0.115_cqq11_0.881_cqu1_3.83_cqd1_-7.017_ctq1_-5.831_ctu1_5.916_ctd1_9.799'> +5.2239721e+02 </wgt>
<wgt id='eftrwgt174_ctg_0.0_cqq83_14.255_cqq81_-3.162_cqu8_7.632_cqd8_8.455_ctq8_-10.706_ctu8_12.248_ctd8_-7.818_cqq13_-7.674_cqq11_3.169_cqu1_-10.606_cqd1_10.997_ctq1_7.461_ctu1_-1.024_ctd1_-12.78'> +5.2365058e+02 </wgt>
<wgt id='eftrwgt175_ctg_0.97_cqq83_0.362_cqq81_12.475_cqu8_-6.155_cqd8_12.941_ctq8_-11.631_ctu8_12.793_ctd8_5.998_cqq13_5.415_cqq11_3.61_cqu1_3.086_cqd1_11.222_ctq1_-7.83_ctu1_7.604_ctd1_-6.316'> +2.0885763e+02 </wgt>
<wgt id='eftrwgt176_ctg_-0.671_cqq83_9.217_cqq81_12.675_cqu8_-5.504_cqd8_11.909_ctq8_-13.928_ctu8_3.526_ctd8_12.153_cqq13_6.419_cqq11_-4.462_cqu1_-8.472_cqd1_-6.853_ctq1_-5.497_ctu1_9.273_ctd1_7.938'> +1.4888616e+02 </wgt>
<wgt id='eftrwgt177_ctg_-0.305_cqq83_7.149_cqq81_-4.524_cqu8_-16.678_cqd8_-16.144_ctq8_5.076_ctu8_-17.746_ctd8_16.893_cqq13_4.267_cqq11_2.618_cqu1_4.353_cqd1_8.975_ctq1_4.66_ctu1_3.456_ctd1_-10.007'> +6.4769403e+02 </wgt>
<wgt id='eftrwgt178_ctg_-0.022_cqq83_13.793_cqq81_-0.578_cqu8_13.877_cqd8_-10.596_ctq8_10.476_ctu8_5.651_ctd8_8.781_cqq13_7.781_cqq11_-0.157_cqu1_-3.425_cqd1_10.096_ctq1_-6.687_ctu1_-1.677_ctd1_2.543'> +1.4083226e+01 </wgt>
<wgt id='eftrwgt179_ctg_0.497_cqq83_-6.916_cqq81_13.035_cqu8_-5.975_cqd8_12.419_ctq8_5.679_ctu8_-2.58_ctd8_-17.339_cqq13_-3.741_cqq11_-1.097_cqu1_-5.551_cqd1_-0.983_ctq1_-5.692_ctu1_4.263_ctd1_4.456'> +2.2010550e+02 </wgt>
<wgt id='sm_point'> +5.9608342e-02 </wgt>
<wgt id='1001'> +1.1579678e+02 </wgt>
<wgt id='1002'> +9.2057649e+01 </wgt>
<wgt id='1003'> +9.2057649e+01 </wgt>
<wgt id='1004'> +1.1654861e+02 </wgt>
<wgt id='1005'> +7.7227065e+01 </wgt>
<wgt id='1006'> +9.8570308e+01 </wgt>
<wgt id='1007'> +7.9317507e+01 </wgt>
<wgt id='1008'> +7.9317507e+01 </wgt>
<wgt id='1009'> +9.9174665e+01 </wgt>
<wgt id='1010'> +6.7113190e+01 </wgt>
<wgt id='1011'> +1.3805346e+02 </wgt>
<wgt id='1012'> +1.0818480e+02 </wgt>
<wgt id='1013'> +1.0818480e+02 </wgt>
<wgt id='1014'> +1.3900895e+02 </wgt>
<wgt id='1015'> +8.9848089e+01 </wgt>
<wgt id='1016'> +1.0749758e+02 </wgt>
<wgt id='1017'> +8.5760200e+01 </wgt>
<wgt id='1018'> +8.5760200e+01 </wgt>
<wgt id='1019'> +1.0818480e+02 </wgt>
<wgt id='1020'> +7.2127855e+01 </wgt>
<wgt id='1021'> +9.1505740e+01 </wgt>
<wgt id='1022'> +7.3891582e+01 </wgt>
<wgt id='1023'> +7.3891582e+01 </wgt>
<wgt id='1024'> +9.2057649e+01 </wgt>
<wgt id='1025'> +6.2681787e+01 </wgt>
<wgt id='1026'> +1.2815912e+02 </wgt>
<wgt id='1027'> +1.0078413e+02 </wgt>
<wgt id='1028'> +1.0078413e+02 </wgt>
<wgt id='1029'> +1.2903333e+02 </wgt>
<wgt id='1030'> +8.3915529e+01 </wgt>
<wgt id='1031'> +1.2521648e+02 </wgt>
<wgt id='1032'> +9.9174665e+01 </wgt>
<wgt id='1033'> +9.9174665e+01 </wgt>
<wgt id='1034'> +1.2604328e+02 </wgt>
<wgt id='1035'> +8.2956652e+01 </wgt>
<wgt id='1036'> +1.0658869e+02 </wgt>
<wgt id='1037'> +8.5449578e+01 </wgt>
<wgt id='1038'> +8.5449578e+01 </wgt>
<wgt id='1039'> +1.0725396e+02 </wgt>
<wgt id='1040'> +7.2092414e+01 </wgt>
<wgt id='1041'> +1.4928367e+02 </wgt>
<wgt id='1042'> +1.1654861e+02 </wgt>
<wgt id='1043'> +1.1654861e+02 </wgt>
<wgt id='1044'> +1.5033336e+02 </wgt>
<wgt id='1045'> +9.6514049e+01 </wgt>
<wgt id='1046'> +1.3768343e+02 </wgt>
<wgt id='1047'> +1.0005118e+02 </wgt>
<wgt id='1048'> +1.1579678e+02 </wgt>
<wgt id='1049'> +1.1594999e+02 </wgt>
<wgt id='1050'> +1.1549297e+02 </wgt>
<wgt id='1051'> +1.1681460e+02 </wgt>
<wgt id='1052'> +1.1560568e+02 </wgt>
<wgt id='1053'> +1.1590478e+02 </wgt>
<wgt id='1054'> +1.1525612e+02 </wgt>
<wgt id='1055'> +1.1484736e+02 </wgt>
<wgt id='1056'> +1.1496362e+02 </wgt>
<wgt id='1057'> +1.1693574e+02 </wgt>
<wgt id='1058'> +1.1632433e+02 </wgt>
<wgt id='1059'> +1.1628979e+02 </wgt>
<wgt id='1060'> +1.1598745e+02 </wgt>
<wgt id='1061'> +1.1656607e+02 </wgt>
<wgt id='1062'> +1.1481255e+02 </wgt>
<wgt id='1063'> +1.1672620e+02 </wgt>
<wgt id='1064'> +1.1577392e+02 </wgt>
<wgt id='1065'> +1.1515835e+02 </wgt>
<wgt id='1066'> +1.1497962e+02 </wgt>
<wgt id='1067'> +1.1577156e+02 </wgt>
<wgt id='1068'> +1.1557774e+02 </wgt>
<wgt id='1069'> +1.1505332e+02 </wgt>
<wgt id='1070'> +1.1648389e+02 </wgt>
<wgt id='1071'> +1.1514794e+02 </wgt>
<wgt id='1072'> +1.1535439e+02 </wgt>
<wgt id='1073'> +1.1487600e+02 </wgt>
<wgt id='1074'> +1.1633045e+02 </wgt>
<wgt id='1075'> +1.1680570e+02 </wgt>
<wgt id='1076'> +1.1626387e+02 </wgt>
<wgt id='1077'> +1.1785106e+02 </wgt>
<wgt id='1078'> +1.1577612e+02 </wgt>
<wgt id='1079'> +1.1733629e+02 </wgt>
<wgt id='1080'> +1.1546502e+02 </wgt>
<wgt id='1081'> +1.1563696e+02 </wgt>
<wgt id='1082'> +1.1633484e+02 </wgt>
<wgt id='1083'> +1.1604633e+02 </wgt>
<wgt id='1084'> +1.1456558e+02 </wgt>
<wgt id='1085'> +1.1605763e+02 </wgt>
<wgt id='1086'> +1.1554868e+02 </wgt>
<wgt id='1087'> +1.1572496e+02 </wgt>
<wgt id='1088'> +1.1582204e+02 </wgt>
<wgt id='1089'> +1.1514864e+02 </wgt>
<wgt id='1090'> +1.1446256e+02 </wgt>
<wgt id='1091'> +1.1560142e+02 </wgt>
<wgt id='1092'> +1.1546752e+02 </wgt>
<wgt id='1093'> +1.1598553e+02 </wgt>
<wgt id='1094'> +1.1621038e+02 </wgt>
<wgt id='1095'> +1.1621411e+02 </wgt>
<wgt id='1096'> +1.1621413e+02 </wgt>
<wgt id='1097'> +1.1615869e+02 </wgt>
<wgt id='1098'> +1.1584875e+02 </wgt>
<wgt id='1099'> +1.1615073e+02 </wgt>
<wgt id='1100'> +1.1538459e+02 </wgt>
<wgt id='1101'> +1.1586776e+02 </wgt>
<wgt id='1102'> +1.1563181e+02 </wgt>
<wgt id='1103'> +1.1583300e+02 </wgt>
<wgt id='1104'> +1.1581560e+02 </wgt>
<wgt id='1105'> +1.1514739e+02 </wgt>
<wgt id='1106'> +1.1595944e+02 </wgt>
<wgt id='1107'> +1.1581989e+02 </wgt>
<wgt id='1108'> +1.1611526e+02 </wgt>
<wgt id='1109'> +1.1611502e+02 </wgt>
<wgt id='1110'> +1.1585743e+02 </wgt>
<wgt id='1111'> +1.1556218e+02 </wgt>
<wgt id='1112'> +1.1574339e+02 </wgt>
<wgt id='1113'> +1.1563489e+02 </wgt>
<wgt id='1114'> +1.1636903e+02 </wgt>
<wgt id='1115'> +1.1623005e+02 </wgt>
<wgt id='1116'> +1.1575247e+02 </wgt>
<wgt id='1117'> +1.1533540e+02 </wgt>
<wgt id='1118'> +1.1566071e+02 </wgt>
<wgt id='1119'> +1.1579542e+02 </wgt>
<wgt id='1120'> +1.1564714e+02 </wgt>
<wgt id='1121'> +1.1641153e+02 </wgt>
<wgt id='1122'> +1.1604620e+02 </wgt>
<wgt id='1123'> +1.1547298e+02 </wgt>
<wgt id='1124'> +1.1594697e+02 </wgt>
<wgt id='1125'> +1.1583900e+02 </wgt>
<wgt id='1126'> +1.1601688e+02 </wgt>
<wgt id='1127'> +1.1573747e+02 </wgt>
<wgt id='1128'> +1.1568121e+02 </wgt>
<wgt id='1129'> +1.1581814e+02 </wgt>
<wgt id='1130'> +1.1612059e+02 </wgt>
<wgt id='1131'> +1.1568517e+02 </wgt>
<wgt id='1132'> +1.1582604e+02 </wgt>
<wgt id='1133'> +1.1558117e+02 </wgt>
<wgt id='1134'> +1.1594034e+02 </wgt>
<wgt id='1135'> +1.1614978e+02 </wgt>
<wgt id='1136'> +1.1597828e+02 </wgt>
<wgt id='1137'> +1.1547574e+02 </wgt>
<wgt id='1138'> +1.1583563e+02 </wgt>
<wgt id='1139'> +1.1569795e+02 </wgt>
<wgt id='1140'> +1.1551635e+02 </wgt>
<wgt id='1141'> +1.1562777e+02 </wgt>
<wgt id='1142'> +1.1575630e+02 </wgt>
<wgt id='1143'> +1.1561572e+02 </wgt>
<wgt id='1144'> +1.1579374e+02 </wgt>
<wgt id='1145'> +1.1589753e+02 </wgt>
<wgt id='1146'> +1.1589446e+02 </wgt>
<wgt id='1147'> +1.1587289e+02 </wgt>
<wgt id='1148'> +1.1579678e+02 </wgt>
<wgt id='1149'> +1.1139271e+02 </wgt>
<wgt id='1150'> +1.2174856e+02 </wgt>
<wgt id='1151'> +1.1579678e+02 </wgt>
<wgt id='1152'> +1.2968292e+02 </wgt>
<wgt id='1153'> +1.1567456e+02 </wgt>
<wgt id='1154'> +1.2003276e+02 </wgt>
<wgt id='1155'> +1.2413459e+02 </wgt>
<wgt id='1156'> +1.1539161e+02 </wgt>
<wgt id='1157'> +1.1559437e+02 </wgt>
<wgt id='1158'> +1.1312455e+02 </wgt>
<wgt id='1159'> +1.1342923e+02 </wgt>
<wgt id='1160'> +1.1494043e+02 </wgt>
<wgt id='1161'> +1.0759352e+02 </wgt>
<wgt id='1162'> +1.1116009e+02 </wgt>
<wgt id='1163'> +1.1963909e+02 </wgt>
<wgt id='1164'> +1.1114273e+02 </wgt>
<wgt id='1165'> +1.1926445e+02 </wgt>
<wgt id='1166'> +1.1238290e+02 </wgt>
<wgt id='1167'> +1.1581365e+02 </wgt>
<wgt id='1168'> +1.1771828e+02 </wgt>
<wgt id='1169'> +1.1851115e+02 </wgt>
<wgt id='1170'> +1.2294861e+02 </wgt>
<wgt id='1171'> +1.1264022e+02 </wgt>
<wgt id='1172'> +1.2203436e+02 </wgt>
<wgt id='1173'> +1.2254531e+02 </wgt>
<wgt id='1174'> +1.2160683e+02 </wgt>
<wgt id='1175'> +1.1873772e+02 </wgt>
<wgt id='1176'> +1.1842360e+02 </wgt>
<wgt id='1177'> +1.2098493e+02 </wgt>
<wgt id='1178'> +1.2338184e+02 </wgt>
<wgt id='1179'> +1.1835015e+02 </wgt>
<wgt id='1180'> +1.1281152e+02 </wgt>
<wgt id='1181'> +1.0443518e+02 </wgt>
<wgt id='1182'> +1.1489995e+02 </wgt>
<wgt id='1183'> +1.1328334e+02 </wgt>
<wgt id='1184'> +1.2608461e+02 </wgt>
<wgt id='1185'> +1.1155155e+02 </wgt>
<wgt id='1186'> +1.1472868e+02 </wgt>
<wgt id='1187'> +1.1569051e+02 </wgt>
<wgt id='1188'> +1.1839328e+02 </wgt>
<wgt id='1189'> +1.1034031e+02 </wgt>
<wgt id='1190'> +1.0505223e+02 </wgt>
<wgt id='1191'> +1.1231870e+02 </wgt>
<wgt id='1192'> +1.2038396e+02 </wgt>
<wgt id='1193'> +1.1787288e+02 </wgt>
<wgt id='1194'> +1.2371651e+02 </wgt>
<wgt id='1195'> +1.1364034e+02 </wgt>
<wgt id='1196'> +1.1556128e+02 </wgt>
<wgt id='1197'> +1.1420057e+02 </wgt>
<wgt id='1198'> +1.1687184e+02 </wgt>
<wgt id='1199'> +1.1740992e+02 </wgt>
<wgt id='1200'> +1.1266989e+02 </wgt>
<wgt id='1201'> +1.1407631e+02 </wgt>
<wgt id='1202'> +1.1669239e+02 </wgt>
<wgt id='1203'> +1.1669759e+02 </wgt>
<wgt id='1204'> +1.1333096e+02 </wgt>
<wgt id='1205'> +1.2502751e+02 </wgt>
<wgt id='1206'> +1.1797920e+02 </wgt>
<wgt id='1207'> +1.1675415e+02 </wgt>
<wgt id='1208'> +1.1955665e+02 </wgt>
<wgt id='1209'> +1.1582125e+02 </wgt>
<wgt id='1210'> +1.1157192e+02 </wgt>
<wgt id='1211'> +1.2530019e+02 </wgt>
<wgt id='1212'> +1.1476729e+02 </wgt>
<wgt id='1213'> +1.1974198e+02 </wgt>
<wgt id='1214'> +1.1689135e+02 </wgt>
<wgt id='1215'> +1.1670035e+02 </wgt>
<wgt id='1216'> +1.2428263e+02 </wgt>
<wgt id='1217'> +1.1064024e+02 </wgt>
<wgt id='1218'> +1.2438105e+02 </wgt>
<wgt id='1219'> +1.1554898e+02 </wgt>
<wgt id='1220'> +1.1193025e+02 </wgt>
<wgt id='1221'> +1.1046730e+02 </wgt>
<wgt id='1222'> +1.1554756e+02 </wgt>
<wgt id='1223'> +1.0970211e+02 </wgt>
<wgt id='1224'> +1.1055917e+02 </wgt>
<wgt id='1225'> +1.1371616e+02 </wgt>
<wgt id='1226'> +1.0885856e+02 </wgt>
<wgt id='1227'> +1.2000987e+02 </wgt>
<wgt id='1228'> +1.1072721e+02 </wgt>
<wgt id='1229'> +1.1707743e+02 </wgt>
<wgt id='1230'> +1.1791334e+02 </wgt>
<wgt id='1231'> +1.0892622e+02 </wgt>
<wgt id='1232'> +1.1809622e+02 </wgt>
<wgt id='1233'> +1.1581365e+02 </wgt>
<wgt id='1234'> +1.0860047e+02 </wgt>
<wgt id='1235'> +1.1573804e+02 </wgt>
<wgt id='1236'> +1.1172044e+02 </wgt>
<wgt id='1237'> +1.1608219e+02 </wgt>
<wgt id='1238'> +1.1353074e+02 </wgt>
<wgt id='1239'> +1.1079976e+02 </wgt>
<wgt id='1240'> +9.7828185e+01 </wgt>
<wgt id='1241'> +1.1121595e+02 </wgt>
<wgt id='1242'> +1.1498359e+02 </wgt>
<wgt id='1243'> +1.0245404e+02 </wgt>
<wgt id='1244'> +1.1223012e+02 </wgt>
<wgt id='1245'> +1.1833858e+02 </wgt>
<wgt id='1246'> +1.1788390e+02 </wgt>
<wgt id='1247'> +1.1453549e+02 </wgt>
<wgt id='1248'> +1.2371332e+02 </wgt>
<wgt id='1249'> +1.1600235e+02 </wgt>
<wgt id='1250'> +1.2132884e+02 </wgt>
<wgt id='1251'> +1.1804324e+02 </wgt>
<wgt id='1252'> +1.1654594e+02 </wgt>
<wgt id='1253'> +1.1607507e+02 </wgt>
<wgt id='1254'> +1.1728312e+02 </wgt>
<wgt id='1255'> +1.1683375e+02 </wgt>
<wgt id='1256'> +1.1637851e+02 </wgt>
<wgt id='1257'> +1.1667346e+02 </wgt>
<wgt id='1258'> +1.1703057e+02 </wgt>
<wgt id='1259'> +1.1660332e+02 </wgt>
<wgt id='1260'> +1.1716345e+02 </wgt>
<wgt id='1261'> +1.1692303e+02 </wgt>
<wgt id='1262'> +1.1654620e+02 </wgt>
<wgt id='1263'> +1.1635457e+02 </wgt>
<wgt id='1264'> +1.1653807e+02 </wgt>
<wgt id='1265'> +1.1628560e+02 </wgt>
<wgt id='1266'> +1.1718301e+02 </wgt>
<wgt id='1267'> +1.1634623e+02 </wgt>
<wgt id='1268'> +1.1720083e+02 </wgt>
<wgt id='1269'> +1.1644683e+02 </wgt>
<wgt id='1270'> +1.1621424e+02 </wgt>
<wgt id='1271'> +1.1664595e+02 </wgt>
<wgt id='1272'> +1.1613826e+02 </wgt>
<wgt id='1273'> +1.1688341e+02 </wgt>
<wgt id='1274'> +1.1665500e+02 </wgt>
<wgt id='1275'> +1.1567817e+02 </wgt>
<wgt id='1276'> +1.1664803e+02 </wgt>
<wgt id='1277'> +1.1640709e+02 </wgt>
<wgt id='1278'> +1.1557650e+02 </wgt>
<wgt id='1279'> +1.1706174e+02 </wgt>
<wgt id='1280'> +1.1700344e+02 </wgt>
<wgt id='1281'> +1.1530463e+02 </wgt>
<wgt id='1282'> +1.1550543e+02 </wgt>
<wgt id='1283'> +1.1676164e+02 </wgt>
<wgt id='1284'> +1.1616485e+02 </wgt>
<wgt id='1285'> +1.1756285e+02 </wgt>
<wgt id='1286'> +1.1589568e+02 </wgt>
<wgt id='1287'> +1.1852429e+02 </wgt>
<wgt id='1288'> +1.1709470e+02 </wgt>
<wgt id='1289'> +1.1563029e+02 </wgt>
<wgt id='1290'> +1.1641001e+02 </wgt>
<wgt id='1291'> +1.1596708e+02 </wgt>
<wgt id='1292'> +1.1660600e+02 </wgt>
<wgt id='1293'> +1.1633308e+02 </wgt>
<wgt id='1294'> +1.1703570e+02 </wgt>
<wgt id='1295'> +1.1647614e+02 </wgt>
<wgt id='1296'> +1.1685547e+02 </wgt>
<wgt id='1297'> +1.1629667e+02 </wgt>
<wgt id='1298'> +1.1616720e+02 </wgt>
<wgt id='1299'> +1.1593169e+02 </wgt>
<wgt id='1300'> +1.1694314e+02 </wgt>
<wgt id='1301'> +1.1649442e+02 </wgt>
<wgt id='1302'> +1.1699964e+02 </wgt>
<wgt id='1303'> +1.1733479e+02 </wgt>
<wgt id='1304'> +1.1590014e+02 </wgt>
<wgt id='1305'> +1.1692212e+02 </wgt>
<wgt id='1306'> +1.1698325e+02 </wgt>
<wgt id='1307'> +1.1763332e+02 </wgt>
<wgt id='1308'> +1.1749399e+02 </wgt>
<wgt id='1309'> +1.1633789e+02 </wgt>
<wgt id='1310'> +1.1686218e+02 </wgt>
<wgt id='1311'> +1.1643353e+02 </wgt>
<wgt id='1312'> +1.1584701e+02 </wgt>
<wgt id='1313'> +1.1605713e+02 </wgt>
<wgt id='1314'> +1.1669404e+02 </wgt>
<wgt id='1315'> +1.1644282e+02 </wgt>
<wgt id='1316'> +1.1666824e+02 </wgt>
<wgt id='1317'> +1.1694375e+02 </wgt>
<wgt id='1318'> +1.1589323e+02 </wgt>
<wgt id='1319'> +1.1621816e+02 </wgt>
<wgt id='1320'> +1.1604133e+02 </wgt>
<wgt id='1321'> +1.1667707e+02 </wgt>
<wgt id='1322'> +1.1634723e+02 </wgt>
<wgt id='1323'> +1.1678567e+02 </wgt>
<wgt id='1324'> +1.1646022e+02 </wgt>
<wgt id='1325'> +1.1679383e+02 </wgt>
<wgt id='1326'> +1.1637321e+02 </wgt>
<wgt id='1327'> +1.1635341e+02 </wgt>
<wgt id='1328'> +1.1643153e+02 </wgt>
<wgt id='1329'> +1.1638573e+02 </wgt>
<wgt id='1330'> +1.1635684e+02 </wgt>
<wgt id='1331'> +1.1616844e+02 </wgt>
<wgt id='1332'> +1.1636777e+02 </wgt>
<wgt id='1333'> +1.1678088e+02 </wgt>
<wgt id='1334'> +1.1682426e+02 </wgt>
<wgt id='1335'> +1.1635411e+02 </wgt>
<wgt id='1336'> +1.1646733e+02 </wgt>
<wgt id='1337'> +1.1643532e+02 </wgt>
<wgt id='1338'> +1.1619023e+02 </wgt>
<wgt id='1339'> +1.1670446e+02 </wgt>
<wgt id='1340'> +1.1664831e+02 </wgt>
<wgt id='1341'> +1.1664330e+02 </wgt>
<wgt id='1342'> +1.1668341e+02 </wgt>
<wgt id='1343'> +1.1663291e+02 </wgt>
<wgt id='1344'> +1.1643942e+02 </wgt>
<wgt id='1345'> +1.1634736e+02 </wgt>
<wgt id='1346'> +1.1649978e+02 </wgt>
<wgt id='1347'> +1.1649811e+02 </wgt>
<wgt id='1348'> +1.1651055e+02 </wgt>
<wgt id='1349'> +1.1668052e+02 </wgt>
<wgt id='1350'> +1.1627599e+02 </wgt>
<wgt id='1351'> +1.1637852e+02 </wgt>
<wgt id='1352'> +1.1648249e+02 </wgt>
<wgt id='1353'> +1.1139271e+02 </wgt>
<wgt id='1354'> +1.2174856e+02 </wgt>
<wgt id='1355'> +9.1930686e+01 </wgt>
<wgt id='1356'> +9.6030829e+01 </wgt>
<wgt id='1357'> +1.0104563e+02 </wgt>
<wgt id='1358'> +1.0644936e+02 </wgt>
<wgt id='1359'> +1.1285384e+02 </wgt>
<wgt id='1360'> +1.1931575e+02 </wgt>
<wgt id='1361'> +1.2706129e+02 </wgt>
<wgt id='1362'> +1.3228744e+02 </wgt>
<wgt id='1363'> +1.1334138e+02 </wgt>
<wgt id='1364'> +1.1373660e+02 </wgt>
<wgt id='1365'> +1.1260330e+02 </wgt>
<wgt id='1366'> +1.1375046e+02 </wgt>
<wgt id='1367'> +1.1312101e+02 </wgt>
<wgt id='1368'> +1.1328716e+02 </wgt>
<wgt id='1369'> +1.1384011e+02 </wgt>
<wgt id='1370'> +1.1334231e+02 </wgt>
<wgt id='1371'> +1.1297377e+02 </wgt>
<wgt id='1372'> +1.1344080e+02 </wgt>
<wgt id='1373'> +1.1336538e+02 </wgt>
<wgt id='1374'> +1.1331649e+02 </wgt>
<wgt id='1375'> +1.1287546e+02 </wgt>
<wgt id='1376'> +1.1349570e+02 </wgt>
<wgt id='1377'> +1.1382489e+02 </wgt>
<wgt id='1378'> +1.1271755e+02 </wgt>
<wgt id='1379'> +1.1381382e+02 </wgt>
<wgt id='1380'> +1.1273907e+02 </wgt>
<wgt id='1381'> +1.1290093e+02 </wgt>
<wgt id='1382'> +1.1290225e+02 </wgt>
<wgt id='1383'> +1.1316188e+02 </wgt>
<wgt id='1384'> +1.1402694e+02 </wgt>
<wgt id='1385'> +1.1343252e+02 </wgt>
<wgt id='1386'> +1.1379367e+02 </wgt>
<wgt id='1387'> +1.1371226e+02 </wgt>
<wgt id='1388'> +1.1301086e+02 </wgt>
<wgt id='1389'> +1.1300769e+02 </wgt>
<wgt id='1390'> +1.1354888e+02 </wgt>
<wgt id='1391'> +1.1376017e+02 </wgt>
<wgt id='1392'> +1.1389926e+02 </wgt>
<wgt id='1393'> +1.1212571e+02 </wgt>
<wgt id='1394'> +1.1361456e+02 </wgt>
<wgt id='1395'> +1.1269352e+02 </wgt>
<wgt id='1396'> +1.1387198e+02 </wgt>
<wgt id='1397'> +1.1299736e+02 </wgt>
<wgt id='1398'> +1.1288852e+02 </wgt>
<wgt id='1399'> +1.1192750e+02 </wgt>
<wgt id='1400'> +1.1365389e+02 </wgt>
<wgt id='1401'> +1.1187107e+02 </wgt>
<wgt id='1402'> +1.1300400e+02 </wgt>
<wgt id='1403'> +1.1260174e+02 </wgt>
<wgt id='1404'> +1.1272362e+02 </wgt>
<wgt id='1405'> +1.1318179e+02 </wgt>
<wgt id='1406'> +1.1416083e+02 </wgt>
<wgt id='1407'> +1.1305238e+02 </wgt>
<wgt id='1408'> +1.1361571e+02 </wgt>
<wgt id='1409'> +1.1286950e+02 </wgt>
<wgt id='1410'> +1.1350553e+02 </wgt>
<wgt id='1411'> +1.1406999e+02 </wgt>
<wgt id='1412'> +1.1320790e+02 </wgt>
<wgt id='1413'> +1.1384723e+02 </wgt>
<wgt id='1414'> +1.1423235e+02 </wgt>
<wgt id='1415'> +1.1320983e+02 </wgt>
<wgt id='1416'> +1.1406583e+02 </wgt>
<wgt id='1417'> +1.1403936e+02 </wgt>
<wgt id='1418'> +1.1343102e+02 </wgt>
<wgt id='1419'> +1.1397961e+02 </wgt>
<wgt id='1420'> +1.1274449e+02 </wgt>
<wgt id='1421'> +1.1256326e+02 </wgt>
<wgt id='1422'> +1.1288833e+02 </wgt>
<wgt id='1423'> +1.1346691e+02 </wgt>
<wgt id='1424'> +1.1355736e+02 </wgt>
<wgt id='1425'> +1.1417063e+02 </wgt>
<wgt id='1426'> +1.1325180e+02 </wgt>
<wgt id='1427'> +1.1314545e+02 </wgt>
<wgt id='1428'> +1.1352762e+02 </wgt>
<wgt id='1429'> +1.1393649e+02 </wgt>
<wgt id='1430'> +1.1389463e+02 </wgt>
<wgt id='1431'> +1.1361789e+02 </wgt>
<wgt id='1432'> +1.1329814e+02 </wgt>
<wgt id='1433'> +1.1395909e+02 </wgt>
<wgt id='1434'> +1.1339631e+02 </wgt>
<wgt id='1435'> +1.1359444e+02 </wgt>
<wgt id='1436'> +1.1337395e+02 </wgt>
<wgt id='1437'> +1.1320817e+02 </wgt>
<wgt id='1438'> +1.1301325e+02 </wgt>
<wgt id='1439'> +1.1333512e+02 </wgt>
<wgt id='1440'> +1.1353423e+02 </wgt>
<wgt id='1441'> +1.1368596e+02 </wgt>
<wgt id='1442'> +1.1347856e+02 </wgt>
<wgt id='1443'> +1.1321396e+02 </wgt>
<wgt id='1444'> +1.1334803e+02 </wgt>
<wgt id='1445'> +1.1311854e+02 </wgt>
<wgt id='1446'> +1.1308445e+02 </wgt>
<wgt id='1447'> +1.1341895e+02 </wgt>
<wgt id='1448'> +1.1294762e+02 </wgt>
<wgt id='1449'> +1.1338200e+02 </wgt>
<wgt id='1450'> +1.1321289e+02 </wgt>
<wgt id='1451'> +1.1313681e+02 </wgt>
<wgt id='1452'> +1.1367339e+02 </wgt>
<wgt id='1453'> +1.1339813e+02 </wgt>
<wgt id='1454'> +1.1359974e+02 </wgt>
<wgt id='1455'> +1.1301137e+02 </wgt>
<wgt id='1456'> +1.1321890e+02 </wgt>
<wgt id='1457'> +1.1346905e+02 </wgt>
<wgt id='1458'> +1.1334908e+02 </wgt>
<wgt id='1459'> +1.1320067e+02 </wgt>
<wgt id='1460'> +1.1307448e+02 </wgt>
<wgt id='1461'> +1.1351534e+02 </wgt>
<wgt id='1462'> +1.1372838e+02 </wgt>
<wgt id='1463'> +1.1363898e+02 </wgt>
<wgt id='1464'> +1.0916708e+02 </wgt>
<wgt id='1465'> +1.1922711e+02 </wgt>
<wgt id='1466'> +1.0661355e+02 </wgt>
<wgt id='1467'> +1.0601894e+02 </wgt>
<wgt id='1468'> +1.0686814e+02 </wgt>
<wgt id='1469'> +1.0488262e+02 </wgt>
<wgt id='1470'> +1.0675729e+02 </wgt>
<wgt id='1471'> +1.0506892e+02 </wgt>
<wgt id='1472'> +1.0597506e+02 </wgt>
<wgt id='1473'> +1.0390455e+02 </wgt>
<wgt id='1474'> +1.0891941e+02 </wgt>
<wgt id='1475'> +1.0321700e+02 </wgt>
<wgt id='1476'> +1.0844239e+02 </wgt>
<wgt id='1477'> +1.0827890e+02 </wgt>
<wgt id='1478'> +1.0360006e+02 </wgt>
<wgt id='1479'> +1.0683672e+02 </wgt>
<wgt id='1480'> +1.0761158e+02 </wgt>
<wgt id='1481'> +1.0684264e+02 </wgt>
<wgt id='1482'> +1.0583056e+02 </wgt>
<wgt id='1483'> +1.0936569e+02 </wgt>
<wgt id='1484'> +1.0371234e+02 </wgt>
<wgt id='1485'> +1.0927773e+02 </wgt>
<wgt id='1486'> +1.0433603e+02 </wgt>
<wgt id='1487'> +1.0778990e+02 </wgt>
<wgt id='1488'> +1.0595240e+02 </wgt>
<wgt id='1489'> +1.0993329e+02 </wgt>
<wgt id='1490'> +1.0303082e+02 </wgt>
<wgt id='1491'> +1.0612326e+02 </wgt>
<wgt id='1492'> +1.0700262e+02 </wgt>
<wgt id='1493'> +1.0592368e+02 </wgt>
<wgt id='1494'> +1.0782089e+02 </wgt>
<wgt id='1495'> +1.0949074e+02 </wgt>
<wgt id='1496'> +1.0479947e+02 </wgt>
<wgt id='1497'> +1.0663812e+02 </wgt>
<wgt id='1498'> +1.0662336e+02 </wgt>
<wgt id='1499'> +1.0934052e+02 </wgt>
<wgt id='1500'> +1.0415275e+02 </wgt>
<wgt id='1501'> +1.0786940e+02 </wgt>
<wgt id='1502'> +1.0546976e+02 </wgt>
<wgt id='1503'> +1.0882524e+02 </wgt>
<wgt id='1504'> +1.0419104e+02 </wgt>
<wgt id='1505'> +1.0811285e+02 </wgt>
<wgt id='1506'> +1.0374432e+02 </wgt>
<wgt id='1507'> +1.0532580e+02 </wgt>
<wgt id='1508'> +1.0790484e+02 </wgt>
<wgt id='1509'> +1.0833793e+02 </wgt>
<wgt id='1510'> +1.0573602e+02 </wgt>
<wgt id='1511'> +1.0134113e+02 </wgt>
<wgt id='1512'> +1.0936039e+02 </wgt>
<wgt id='1513'> +1.1171228e+02 </wgt>
<wgt id='1514'> +1.0284828e+02 </wgt>
<wgt id='1515'> +1.0731549e+02 </wgt>
<wgt id='1516'> +1.0581683e+02 </wgt>
<wgt id='1517'> +1.0572409e+02 </wgt>
<wgt id='1518'> +1.0359012e+02 </wgt>
<wgt id='1519'> +1.0710887e+02 </wgt>
<wgt id='1520'> +1.0647099e+02 </wgt>
<wgt id='1521'> +1.0615650e+02 </wgt>
<wgt id='1522'> +1.0828927e+02 </wgt>
<wgt id='1523'> +1.0244674e+02 </wgt>
<wgt id='1524'> +1.1084538e+02 </wgt>
<wgt id='1525'> +1.1019221e+02 </wgt>
<wgt id='1526'> +1.0664816e+02 </wgt>
<wgt id='1527'> +1.0983165e+02 </wgt>
<wgt id='1528'> +1.0883075e+02 </wgt>
<wgt id='1529'> +1.1019639e+02 </wgt>
<wgt id='1530'> +1.1100149e+02 </wgt>
<wgt id='1531'> +1.0995779e+02 </wgt>
<wgt id='1532'> +1.1128819e+02 </wgt>
<wgt id='1533'> +1.0887483e+02 </wgt>
<wgt id='1534'> +1.1114283e+02 </wgt>
<wgt id='1535'> +1.0992452e+02 </wgt>
<wgt id='1536'> +1.0309223e+02 </wgt>
<wgt id='1537'> +1.1499940e+02 </wgt>
<wgt id='1538'> +1.1133151e+02 </wgt>
<wgt id='1539'> +1.1053360e+02 </wgt>
<wgt id='1540'> +1.1210742e+02 </wgt>
<wgt id='1541'> +1.0669134e+02 </wgt>
<wgt id='1542'> +1.1397493e+02 </wgt>
<wgt id='1543'> +1.0577379e+02 </wgt>
<wgt id='1544'> +1.1133186e+02 </wgt>
<wgt id='1545'> +1.0911457e+02 </wgt>
<wgt id='1546'> +1.1123751e+02 </wgt>
<wgt id='1547'> +1.0883116e+02 </wgt>
<wgt id='1548'> +1.0788485e+02 </wgt>
<wgt id='1549'> +1.1199073e+02 </wgt>
<wgt id='1550'> +1.0965577e+02 </wgt>
<wgt id='1551'> +1.1051717e+02 </wgt>
<wgt id='1552'> +1.1077637e+02 </wgt>
<wgt id='1553'> +1.0930989e+02 </wgt>
<wgt id='1554'> +1.1152905e+02 </wgt>
<wgt id='1555'> +1.0971798e+02 </wgt>
<wgt id='1556'> +1.1131549e+02 </wgt>
<wgt id='1557'> +1.0875118e+02 </wgt>
<wgt id='1558'> +1.0950072e+02 </wgt>
<wgt id='1559'> +1.1173544e+02 </wgt>
<wgt id='1560'> +1.1170963e+02 </wgt>
<wgt id='1561'> +1.0858066e+02 </wgt>
<wgt id='1562'> +1.0953918e+02 </wgt>
<wgt id='1563'> +1.1062790e+02 </wgt>
<wgt id='1564'> +1.0755935e+02 </wgt>
<wgt id='1565'> +1.1146155e+02 </wgt>
<wgt id='1566'> +1.0612391e+02 </wgt>
<wgt id='1567'> +1.1332349e+02 </wgt>
<wgt id='1568'> +1.1307316e+02 </wgt>
<wgt id='1569'> +1.0753816e+02 </wgt>
<wgt id='1570'> +1.1099464e+02 </wgt>
<wgt id='1571'> +1.0838226e+02 </wgt>
<wgt id='1572'> +1.0995374e+02 </wgt>
<wgt id='1573'> +1.1018078e+02 </wgt>
<wgt id='1574'> +1.0907508e+02 </wgt>
<wgt id='1575'> +1.1088564e+02 </wgt>
<wgt id='1576'> +1.1023707e+02 </wgt>
<wgt id='1577'> +1.0856565e+02 </wgt>
<wgt id='1578'> +1.0925275e+02 </wgt>
<wgt id='1579'> +1.0996447e+02 </wgt>
<wgt id='1580'> +1.1080429e+02 </wgt>
<wgt id='1581'> +1.1103056e+02 </wgt>
<wgt id='1582'> +1.0566206e+02 </wgt>
<wgt id='1583'> +1.1466971e+02 </wgt>
<wgt id='1584'> +1.1147739e+02 </wgt>
<wgt id='1585'> +1.2078805e+02 </wgt>
<wgt id='1586'> +1.2025944e+02 </wgt>
<wgt id='1587'> +1.2135138e+02 </wgt>
<wgt id='1588'> +1.2080586e+02 </wgt>
<wgt id='1589'> +1.2077770e+02 </wgt>
<wgt id='1590'> +1.2041001e+02 </wgt>
<wgt id='1591'> +1.2113659e+02 </wgt>
<wgt id='1592'> +1.2074703e+02 </wgt>
<wgt id='1593'> +1.2082574e+02 </wgt>
<wgt id='1594'> +1.2046542e+02 </wgt>
<wgt id='1595'> +1.2110977e+02 </wgt>
<wgt id='1596'> +1.2010563e+02 </wgt>
<wgt id='1597'> +1.2226807e+02 </wgt>
<wgt id='1598'> +1.2202013e+02 </wgt>
<wgt id='1599'> +1.1861190e+02 </wgt>
<wgt id='1600'> +1.2175796e+02 </wgt>
<wgt id='1601'> +1.2022663e+02 </wgt>
<wgt id='1602'> +1.2150018e+02 </wgt>
<wgt id='1603'> +1.1995703e+02 </wgt>
<wgt id='1604'> +1.1878041e+02 </wgt>
<wgt id='1605'> +1.2252706e+02 </wgt>
<wgt id='1606'> +1.2017339e+02 </wgt>
<wgt id='1607'> +1.2155110e+02 </wgt>
<wgt id='1608'> +1.2053142e+02 </wgt>
<wgt id='1609'> +1.2091883e+02 </wgt>
<wgt id='1610'> +1.2101565e+02 </wgt>
<wgt id='1611'> +1.2055856e+02 </wgt>
<wgt id='1612'> +1.1913725e+02 </wgt>
<wgt id='1613'> +1.2056203e+02 </wgt>
<wgt id='1614'> +1.2055235e+02 </wgt>
<wgt id='1615'> +1.2095997e+02 </wgt>
<wgt id='1616'> +1.2349883e+02 </wgt>
<wgt id='1617'> +1.1785113e+02 </wgt>
<wgt id='1618'> +1.1972770e+02 </wgt>
<wgt id='1619'> +1.2172435e+02 </wgt>
<wgt id='1620'> +1.2084070e+02 </wgt>
<wgt id='1621'> +1.2069932e+02 </wgt>
<wgt id='1622'> +1.2037445e+02 </wgt>
<wgt id='1623'> +1.2098508e+02 </wgt>
<wgt id='1624'> +1.2022042e+02 </wgt>
<wgt id='1625'> +1.2129755e+02 </wgt>
<wgt id='1626'> +1.1844038e+02 </wgt>
<wgt id='1627'> +1.2410212e+02 </wgt>
<wgt id='1628'> +1.2038090e+02 </wgt>
<wgt id='1629'> +1.2100033e+02 </wgt>
<wgt id='1630'> +1.1952554e+02 </wgt>
<wgt id='1631'> +1.2406267e+02 </wgt>
<wgt id='1632'> +1.2075021e+02 </wgt>
<wgt id='1633'> +1.2043034e+02 </wgt>
<wgt id='1634'> +1.2142883e+02 </wgt>
<wgt id='1635'> +1.1984248e+02 </wgt>
<wgt id='1636'> +1.1877435e+02 </wgt>
<wgt id='1637'> +1.1827888e+02 </wgt>
<wgt id='1638'> +1.1939837e+02 </wgt>
<wgt id='1639'> +1.1834992e+02 </wgt>
<wgt id='1640'> +1.1918986e+02 </wgt>
<wgt id='1641'> +1.1878047e+02 </wgt>
<wgt id='1642'> +1.1877094e+02 </wgt>
<wgt id='1643'> +1.1871321e+02 </wgt>
<wgt id='1644'> +1.1883818e+02 </wgt>
<wgt id='1645'> +1.1894265e+02 </wgt>
<wgt id='1646'> +1.1861230e+02 </wgt>
<wgt id='1647'> +1.2093177e+02 </wgt>
<wgt id='1648'> +1.1784933e+02 </wgt>
<wgt id='1649'> +1.1894996e+02 </wgt>
<wgt id='1650'> +1.1854805e+02 </wgt>
<wgt id='1651'> +1.2072803e+02 </wgt>
<wgt id='1652'> +1.1667203e+02 </wgt>
<wgt id='1653'> +1.1663165e+02 </wgt>
<wgt id='1654'> +1.1998307e+02 </wgt>
<wgt id='1655'> +1.2041660e+02 </wgt>
<wgt id='1656'> +1.1656445e+02 </wgt>
<wgt id='1657'> +1.1849225e+02 </wgt>
<wgt id='1658'> +1.1896039e+02 </wgt>
<wgt id='1659'> +1.1760563e+02 </wgt>
<wgt id='1660'> +1.1989815e+02 </wgt>
<wgt id='1661'> +1.1863099e+02 </wgt>
<wgt id='1662'> +1.1910597e+02 </wgt>
<wgt id='1663'> +1.1768345e+02 </wgt>
<wgt id='1664'> +1.1788574e+02 </wgt>
<wgt id='1665'> +1.1819153e+02 </wgt>
<wgt id='1666'> +1.2036086e+02 </wgt>
<wgt id='1667'> +1.2058350e+02 </wgt>
<wgt id='1668'> +1.1497555e+02 </wgt>
<wgt id='1669'> +1.1846477e+02 </wgt>
<wgt id='1670'> +1.1912008e+02 </wgt>
<wgt id='1671'> +1.1884696e+02 </wgt>
<wgt id='1672'> +1.1865974e+02 </wgt>
<wgt id='1673'> +1.1848752e+02 </wgt>
<wgt id='1674'> +1.1888991e+02 </wgt>
<wgt id='1675'> +1.1822012e+02 </wgt>
<wgt id='1676'> +1.1904777e+02 </wgt>
<wgt id='1677'> +1.2107886e+02 </wgt>
<wgt id='1678'> +1.1493734e+02 </wgt>
<wgt id='1679'> +1.1829764e+02 </wgt>
<wgt id='1680'> +1.1977773e+02 </wgt>
<wgt id='1681'> +1.1810378e+02 </wgt>
<wgt id='1682'> +1.1946978e+02 </wgt>
<wgt id='1683'> +1.2159984e+02 </wgt>
<wgt id='1684'> +1.1755293e+02 </wgt>
<wgt id='1685'> +1.1832183e+02 </wgt>
<wgt id='1686'> +1.1889894e+02 </wgt>
<wgt id='1687'> +1.7490508e+02 </wgt>
<wgt id='1688'> +1.0634525e+02 </wgt>
<wgt id='1689'> +1.0632941e+02 </wgt>
<wgt id='1690'> +1.0636288e+02 </wgt>
<wgt id='1691'> +1.0618964e+02 </wgt>
<wgt id='1692'> +1.0634749e+02 </wgt>
<wgt id='1693'> +1.0664827e+02 </wgt>
<wgt id='1694'> +1.0582519e+02 </wgt>
<wgt id='1695'> +1.0674005e+02 </wgt>
<wgt id='1696'> +1.0647447e+02 </wgt>
<wgt id='1697'> +1.0515745e+02 </wgt>
<wgt id='1698'> +1.0652039e+02 </wgt>
<wgt id='1699'> +1.0666969e+02 </wgt>
<wgt id='1700'> +1.0696594e+02 </wgt>
<wgt id='1701'> +1.0630546e+02 </wgt>
<wgt id='1702'> +1.0641072e+02 </wgt>
<wgt id='1703'> +1.0684770e+02 </wgt>
<wgt id='1704'> +1.0590821e+02 </wgt>
<wgt id='1705'> +1.0606885e+02 </wgt>
<wgt id='1706'> +1.0597421e+02 </wgt>
<wgt id='1707'> +1.0639737e+02 </wgt>
<wgt id='1708'> +1.0729812e+02 </wgt>
<wgt id='1709'> +1.0625070e+02 </wgt>
<wgt id='1710'> +1.0611498e+02 </wgt>
<wgt id='1711'> +1.0647545e+02 </wgt>
<wgt id='1712'> +1.0664880e+02 </wgt>
<wgt id='1713'> +1.0621246e+02 </wgt>
<wgt id='1714'> +1.0701243e+02 </wgt>
<wgt id='1715'> +1.0587785e+02 </wgt>
<wgt id='1716'> +1.0565798e+02 </wgt>
<wgt id='1717'> +1.0542167e+02 </wgt>
<wgt id='1718'> +1.1404766e+02 </wgt>
<wgt id='1719'> +1.1503362e+02 </wgt>
<wgt id='1720'> +1.1424833e+02 </wgt>
<wgt id='1721'> +1.1489378e+02 </wgt>
<wgt id='1722'> +1.1426837e+02 </wgt>
<wgt id='1723'> +1.1302661e+02 </wgt>
<wgt id='1724'> +1.1404210e+02 </wgt>
<wgt id='1725'> +1.1385461e+02 </wgt>
<wgt id='1726'> +1.1554874e+02 </wgt>
<wgt id='1727'> +1.1430911e+02 </wgt>
<wgt id='1728'> +1.1507437e+02 </wgt>
<wgt id='1729'> +1.1422692e+02 </wgt>
<wgt id='1730'> +1.1461767e+02 </wgt>
<wgt id='1731'> +1.1178056e+02 </wgt>
<wgt id='1732'> +1.1481628e+02 </wgt>
<wgt id='1733'> +1.1419624e+02 </wgt>
<wgt id='1734'> +1.1364958e+02 </wgt>
<wgt id='1735'> +1.1557688e+02 </wgt>
<wgt id='1736'> +1.1482147e+02 </wgt>
<wgt id='1737'> +1.1414164e+02 </wgt>
<wgt id='1738'> +1.1573929e+02 </wgt>
<wgt id='1739'> +1.1354896e+02 </wgt>
<wgt id='1740'> +1.1336991e+02 </wgt>
<wgt id='1741'> +1.1708350e+02 </wgt>
<wgt id='1742'> +1.1275577e+02 </wgt>
<wgt id='1743'> +1.1054415e+02 </wgt>
<wgt id='1744'> +1.1283706e+02 </wgt>
<wgt id='1745'> +1.1613879e+02 </wgt>
<wgt id='1746'> +1.1272182e+02 </wgt>
<wgt id='1747'> +1.1346847e+02 </wgt>
<wgt id='1748'> +1.1570684e+02 </wgt>
<wgt id='1749'> +1.1334537e+02 </wgt>
<wgt id='1750'> +1.1475355e+02 </wgt>
<wgt id='1751'> +1.1463663e+02 </wgt>
<wgt id='1752'> +1.1366450e+02 </wgt>
<wgt id='1753'> +1.1560843e+02 </wgt>
<wgt id='1754'> +1.1379297e+02 </wgt>
<wgt id='1755'> +1.1342521e+02 </wgt>
<wgt id='1756'> +1.1357358e+02 </wgt>
<wgt id='1757'> +1.1419114e+02 </wgt>
<wgt id='1758'> +1.1385426e+02 </wgt>
<wgt id='1759'> +1.1462320e+02 </wgt>
<wgt id='1760'> +1.1399363e+02 </wgt>
<wgt id='1761'> +1.1370839e+02 </wgt>
<wgt id='1762'> +1.1522649e+02 </wgt>
<wgt id='1763'> +1.1387958e+02 </wgt>
<wgt id='1764'> +1.1427260e+02 </wgt>
<wgt id='1765'> +1.1371663e+02 </wgt>
<wgt id='1766'> +1.1415774e+02 </wgt>
<wgt id='1767'> +1.1415595e+02 </wgt>
<wgt id='1768'> +1.1375584e+02 </wgt>
<wgt id='1769'> +1.1408088e+02 </wgt>
<wgt id='1770'> +1.1399014e+02 </wgt>
<wgt id='1771'> +1.1355369e+02 </wgt>
<wgt id='1772'> +1.1411391e+02 </wgt>
<wgt id='1773'> +1.1364527e+02 </wgt>
<wgt id='1774'> +1.1397572e+02 </wgt>
<wgt id='1775'> +1.1394584e+02 </wgt>
<wgt id='1776'> +1.1450308e+02 </wgt>
<wgt id='1777'> +1.1384886e+02 </wgt>
<wgt id='1778'> +1.1361986e+02 </wgt>
<wgt id='1779'> +1.1373367e+02 </wgt>
<wgt id='1780'> +1.1444030e+02 </wgt>
<wgt id='1781'> +1.1419479e+02 </wgt>
<wgt id='1782'> +1.1402967e+02 </wgt>
<wgt id='1783'> +1.1430807e+02 </wgt>
<wgt id='1784'> +1.1446729e+02 </wgt>
<wgt id='1785'> +1.1408638e+02 </wgt>
<wgt id='1786'> +1.1394756e+02 </wgt>
<wgt id='1787'> +1.1387338e+02 </wgt>
<wgt id='1788'> +1.1411828e+02 </wgt>
<wgt id='1789'> +1.1383403e+02 </wgt>
<wgt id='1790'> +1.1396263e+02 </wgt>
<wgt id='1791'> +1.1378932e+02 </wgt>
<wgt id='1792'> +1.1394579e+02 </wgt>
<wgt id='1793'> +1.1424097e+02 </wgt>
<wgt id='1794'> +1.1391548e+02 </wgt>
<wgt id='1795'> +1.1409414e+02 </wgt>
<wgt id='1796'> +1.1407286e+02 </wgt>
<wgt id='1797'> +1.1410782e+02 </wgt>
<wgt id='1798'> +1.1411715e+02 </wgt>
<wgt id='1799'> +1.1394664e+02 </wgt>
<wgt id='1800'> +1.1396823e+02 </wgt>
<wgt id='1801'> +1.1409571e+02 </wgt>
<wgt id='1802'> +1.1409657e+02 </wgt>
<wgt id='1803'> +1.1411825e+02 </wgt>
<wgt id='1804'> +1.1413455e+02 </wgt>
<wgt id='1805'> +1.1406682e+02 </wgt>
<wgt id='1806'> +1.1407305e+02 </wgt>
<wgt id='1807'> +1.1402636e+02 </wgt>
<wgt id='1808'> +1.1398875e+02 </wgt>
<wgt id='1809'> +1.1393095e+02 </wgt>
<wgt id='1810'> +1.1396824e+02 </wgt>
<wgt id='1811'> +1.1399893e+02 </wgt>
<wgt id='1812'> +1.1408001e+02 </wgt>
<wgt id='1813'> +1.1400593e+02 </wgt>
<wgt id='1814'> +1.1397891e+02 </wgt>
<wgt id='1815'> +1.1409295e+02 </wgt>
<wgt id='1816'> +1.1405918e+02 </wgt>
<wgt id='1817'> +1.1394413e+02 </wgt>
<wgt id='1818'> +1.1401833e+02 </wgt>
<wgt id='1819'> +1.0999088e+02 </wgt>
<wgt id='1820'> +1.1721576e+02 </wgt>
<wgt id='1821'> +1.1135428e+02 </wgt>
<wgt id='1822'> +1.1278309e+02 </wgt>
<wgt id='1823'> +1.1158360e+02 </wgt>
<wgt id='1824'> +1.1091473e+02 </wgt>
<wgt id='1825'> +1.1217117e+02 </wgt>
<wgt id='1826'> +1.1164085e+02 </wgt>
<wgt id='1827'> +1.1049472e+02 </wgt>
<wgt id='1828'> +1.1074624e+02 </wgt>
<wgt id='1829'> +1.1138881e+02 </wgt>
<wgt id='1830'> +1.1106646e+02 </wgt>
<wgt id='1831'> +1.1108272e+02 </wgt>
<wgt id='1832'> +1.1071974e+02 </wgt>
<wgt id='1833'> +1.1115910e+02 </wgt>
<wgt id='1834'> +1.1079423e+02 </wgt>
<wgt id='1835'> +1.1192097e+02 </wgt>
<wgt id='1836'> +1.1416802e+02 </wgt>
<wgt id='1837'> +1.0947375e+02 </wgt>
<wgt id='1838'> +1.1172886e+02 </wgt>
<wgt id='1839'> +1.1260030e+02 </wgt>
<wgt id='1840'> +1.0917962e+02 </wgt>
<wgt id='1841'> +1.1016545e+02 </wgt>
<wgt id='1842'> +1.1284970e+02 </wgt>
<wgt id='1843'> +1.0937140e+02 </wgt>
<wgt id='1844'> +1.1165793e+02 </wgt>
<wgt id='1845'> +1.1364342e+02 </wgt>
<wgt id='1846'> +1.1207566e+02 </wgt>
<wgt id='1847'> +1.1159594e+02 </wgt>
<wgt id='1848'> +1.1073710e+02 </wgt>
<wgt id='1849'> +1.1032160e+02 </wgt>
<wgt id='1850'> +1.1065984e+02 </wgt>
<wgt id='1851'> +1.1169855e+02 </wgt>
<wgt id='1852'> +1.0884230e+02 </wgt>
<wgt id='1853'> +1.1197649e+02 </wgt>
<wgt id='1854'> +1.0975740e+02 </wgt>
<wgt id='1855'> +1.0987839e+02 </wgt>
<wgt id='1856'> +1.1251725e+02 </wgt>
<wgt id='1857'> +1.1132498e+02 </wgt>
<wgt id='1858'> +1.1149345e+02 </wgt>
<wgt id='1859'> +1.1115497e+02 </wgt>
<wgt id='1860'> +1.1302067e+02 </wgt>
<wgt id='1861'> +1.1182228e+02 </wgt>
<wgt id='1862'> +1.1070583e+02 </wgt>
<wgt id='1863'> +1.1152121e+02 </wgt>
<wgt id='1864'> +1.1108063e+02 </wgt>
<wgt id='1865'> +1.1147679e+02 </wgt>
<wgt id='1866'> +1.1110504e+02 </wgt>
<wgt id='1867'> +1.1102295e+02 </wgt>
<wgt id='1868'> +1.1183910e+02 </wgt>
<wgt id='1869'> +1.1236274e+02 </wgt>
<wgt id='1870'> +1.1127650e+02 </wgt>
<wgt id='1871'> +1.1142288e+02 </wgt>
<wgt id='1872'> +1.1139302e+02 </wgt>
<wgt id='1873'> +1.1141352e+02 </wgt>
<wgt id='1874'> +1.1152484e+02 </wgt>
<wgt id='1875'> +1.1101351e+02 </wgt>
<wgt id='1876'> +1.1125005e+02 </wgt>
<wgt id='1877'> +1.1145533e+02 </wgt>
<wgt id='1878'> +1.1119166e+02 </wgt>
<wgt id='1879'> +1.1065708e+02 </wgt>
<wgt id='1880'> +1.1151193e+02 </wgt>
<wgt id='1881'> +1.1135202e+02 </wgt>
<wgt id='1882'> +1.1125787e+02 </wgt>
<wgt id='1883'> +1.1183926e+02 </wgt>
<wgt id='1884'> +1.1183033e+02 </wgt>
<wgt id='1885'> +1.1150035e+02 </wgt>
<wgt id='1886'> +1.1077146e+02 </wgt>
<wgt id='1887'> +1.1148027e+02 </wgt>
<wgt id='1888'> +1.1143173e+02 </wgt>
<wgt id='1889'> +1.1146076e+02 </wgt>
<wgt id='1890'> +1.1140840e+02 </wgt>
<wgt id='1891'> +1.1118512e+02 </wgt>
<wgt id='1892'> +1.1153916e+02 </wgt>
<wgt id='1893'> +1.1136541e+02 </wgt>
<wgt id='1894'> +1.1107725e+02 </wgt>
<wgt id='1895'> +1.1142628e+02 </wgt>
<wgt id='1896'> +1.1141917e+02 </wgt>
<wgt id='1897'> +1.1131066e+02 </wgt>
<wgt id='1898'> +1.1142912e+02 </wgt>
<wgt id='1899'> +1.1137099e+02 </wgt>
<wgt id='1900'> +1.1131722e+02 </wgt>
<wgt id='1901'> +1.1143215e+02 </wgt>
<wgt id='1902'> +1.1138429e+02 </wgt>
<wgt id='1903'> +1.1141666e+02 </wgt>
<wgt id='1904'> +1.1133808e+02 </wgt>
<wgt id='1905'> +1.1125326e+02 </wgt>
<wgt id='1906'> +1.1135576e+02 </wgt>
<wgt id='1907'> +1.1136343e+02 </wgt>
<wgt id='1908'> +1.1121904e+02 </wgt>
<wgt id='1909'> +1.1137113e+02 </wgt>
<wgt id='1910'> +1.1121137e+02 </wgt>
<wgt id='1911'> +1.1137742e+02 </wgt>
<wgt id='1912'> +1.1141011e+02 </wgt>
<wgt id='1913'> +1.1133576e+02 </wgt>
<wgt id='1914'> +1.1131281e+02 </wgt>
<wgt id='1915'> +1.1135684e+02 </wgt>
<wgt id='1916'> +1.1127487e+02 </wgt>
<wgt id='1917'> +1.1121311e+02 </wgt>
<wgt id='1918'> +1.1133828e+02 </wgt>
<wgt id='1919'> +1.1139375e+02 </wgt>
<wgt id='1920'> +1.1131845e+02 </wgt>
<wgt id='1921'> +1.1129124e+02 </wgt>
<wgt id='1922'> +1.0771063e+02 </wgt>
<wgt id='1923'> +1.1442833e+02 </wgt>
<wgt id='1924'> +1.1415878e+02 </wgt>
<wgt id='1925'> +1.1756741e+02 </wgt>
<wgt id='1926'> +1.1406665e+02 </wgt>
<wgt id='1927'> +1.1418109e+02 </wgt>
<wgt id='1928'> +1.1596442e+02 </wgt>
<wgt id='1929'> +1.1457803e+02 </wgt>
<wgt id='1930'> +1.1919172e+02 </wgt>
<wgt id='1931'> +1.1394433e+02 </wgt>
<wgt id='1932'> +1.1363915e+02 </wgt>
<wgt id='1933'> +1.1400713e+02 </wgt>
<wgt id='1934'> +1.1414617e+02 </wgt>
<wgt id='1935'> +1.1402139e+02 </wgt>
<wgt id='1936'> +1.1251583e+02 </wgt>
<wgt id='1937'> +1.1373154e+02 </wgt>
<wgt id='1938'> +1.1434635e+02 </wgt>
<wgt id='1939'> +1.1274684e+02 </wgt>
<wgt id='1940'> +1.1395200e+02 </wgt>
<wgt id='1941'> +1.1410422e+02 </wgt>
<wgt id='1942'> +1.1201933e+02 </wgt>
<wgt id='1943'> +1.1387091e+02 </wgt>
<wgt id='1944'> +1.1551867e+02 </wgt>
<wgt id='1945'> +1.1406843e+02 </wgt>
<wgt id='1946'> +1.1457967e+02 </wgt>
<wgt id='1947'> +1.1419813e+02 </wgt>
<wgt id='1948'> +1.1537876e+02 </wgt>
<wgt id='1949'> +1.1394878e+02 </wgt>
<wgt id='1950'> +1.1462011e+02 </wgt>
<wgt id='1951'> +1.1319972e+02 </wgt>
<wgt id='1952'> +1.1426088e+02 </wgt>
<wgt id='1953'> +1.1393123e+02 </wgt>
<wgt id='1954'> +1.1397578e+02 </wgt>
<wgt id='1955'> +1.0999088e+02 </wgt>
<wgt id='1956'> +1.1721576e+02 </wgt>
<wgt id='1957'> +1.1136185e+02 </wgt>
<wgt id='1958'> +1.1367887e+02 </wgt>
<wgt id='1959'> +1.1338244e+02 </wgt>
<wgt id='1960'> +1.1156339e+02 </wgt>
<wgt id='1961'> +1.1156136e+02 </wgt>
<wgt id='1962'> +1.1127973e+02 </wgt>
<wgt id='1963'> +1.1131391e+02 </wgt>
<wgt id='1964'> +1.1095772e+02 </wgt>
<wgt id='1965'> +1.1471151e+02 </wgt>
<wgt id='1966'> +1.0875664e+02 </wgt>
<wgt id='1967'> +1.1089668e+02 </wgt>
<wgt id='1968'> +1.1345116e+02 </wgt>
<wgt id='1969'> +1.1151919e+02 </wgt>
<wgt id='1970'> +1.1225213e+02 </wgt>
<wgt id='1971'> +1.1161875e+02 </wgt>
<wgt id='1972'> +1.1306290e+02 </wgt>
<wgt id='1973'> +1.1246522e+02 </wgt>
<wgt id='1974'> +1.1059223e+02 </wgt>
<wgt id='1975'> +1.1157078e+02 </wgt>
<wgt id='1976'> +1.1161338e+02 </wgt>
<wgt id='1977'> +1.1044321e+02 </wgt>
<wgt id='1978'> +1.1021153e+02 </wgt>
<wgt id='1979'> +1.1112627e+02 </wgt>
<wgt id='1980'> +1.1128288e+02 </wgt>
<wgt id='1981'> +1.1072176e+02 </wgt>
<wgt id='1982'> +1.1140834e+02 </wgt>
<wgt id='1983'> +1.0986473e+02 </wgt>
<wgt id='1984'> +1.1140576e+02 </wgt>
<wgt id='1985'> +1.0966437e+02 </wgt>
<wgt id='1986'> +1.1231558e+02 </wgt>
<wgt id='1987'> +1.1100568e+02 </wgt>
<wgt id='1988'> +1.0771063e+02 </wgt>
<wgt id='1989'> +1.1442833e+02 </wgt>
<wgt id='1990'> +9.3176780e+01 </wgt>
<wgt id='1991'> +9.3352067e+01 </wgt>
<wgt id='1992'> +9.3002188e+01 </wgt>
<wgt id='1993'> +9.2877106e+01 </wgt>
<wgt id='1994'> +9.3476577e+01 </wgt>
<wgt id='1995'> +9.3257356e+01 </wgt>
<wgt id='1996'> +9.3096214e+01 </wgt>
<wgt id='1997'> +9.2664788e+01 </wgt>
<wgt id='1998'> +9.3681460e+01 </wgt>
<wgt id='1999'> +9.0847253e+01 </wgt>
<wgt id='2000'> +9.5503246e+01 </wgt>
<wgt id='2001'> +9.4426251e+01 </wgt>
<wgt id='2002'> +9.1955895e+01 </wgt>
<wgt id='2003'> +9.3676403e+01 </wgt>
<wgt id='2004'> +9.2677918e+01 </wgt>
<wgt id='2005'> +9.2223152e+01 </wgt>
<wgt id='2006'> +9.4078495e+01 </wgt>
<wgt id='2007'> +9.1356090e+01 </wgt>
<wgt id='2008'> +9.5095604e+01 </wgt>
<wgt id='2009'> +9.3811357e+01 </wgt>
<wgt id='2010'> +9.2416187e+01 </wgt>
<wgt id='2011'> +9.1567947e+01 </wgt>
<wgt id='2012'> +9.4819176e+01 </wgt>
<wgt id='2013'> +9.3487779e+01 </wgt>
<wgt id='2014'> +9.3359056e+01 </wgt>
<wgt id='2015'> +9.4537242e+01 </wgt>
<wgt id='2016'> +9.1807587e+01 </wgt>
<wgt id='2017'> +9.2181833e+01 </wgt>
<wgt id='2018'> +9.4263690e+01 </wgt>
<wgt id='2019'> +9.3176780e+01 </wgt>
<wgt id='2020'> +9.9686254e+01 </wgt>
<wgt id='2021'> +8.6630820e+01 </wgt>
<wgt id='2022'> +1.1625045e+02 </wgt>
<wgt id='2023'> +1.1188996e+02 </wgt>
<wgt id='2024'> +9.3179859e+01 </wgt>
<wgt id='2025'> +9.3519096e+01 </wgt>
<wgt id='2026'> +9.3369001e+01 </wgt>
<wgt id='2027'> +9.2967038e+01 </wgt>
<wgt id='2028'> +9.2842522e+01 </wgt>
<wgt id='2029'> +9.3410195e+01 </wgt>
<wgt id='2030'> +9.2125478e+01 </wgt>
<wgt id='2031'> +9.4021472e+01 </wgt>
<wgt id='2032'> +9.7518775e+01 </wgt>
<wgt id='2033'> +9.4587306e+01 </wgt>
<wgt id='2034'> +9.4698853e+01 </wgt>
<wgt id='2035'> +9.4486332e+01 </wgt>
<wgt id='2036'> +9.4343279e+01 </wgt>
<wgt id='2037'> +9.4841858e+01 </wgt>
<wgt id='2038'> +9.4563618e+01 </wgt>
<wgt id='2039'> +9.4621170e+01 </wgt>
<wgt id='2040'> +9.4049097e+01 </wgt>
<wgt id='2041'> +9.5128414e+01 </wgt>
<wgt id='2042'> +9.4218802e+01 </wgt>
<wgt id='2043'> +9.4966440e+01 </wgt>
<wgt id='2044'> +9.1956967e+01 </wgt>
<wgt id='2045'> +9.7242504e+01 </wgt>
<wgt id='2046'> +9.5285191e+01 </wgt>
<wgt id='2047'> +9.3897129e+01 </wgt>
<wgt id='2048'> +9.4431493e+01 </wgt>
<wgt id='2049'> +9.4648981e+01 </wgt>
<wgt id='2050'> +9.5756182e+01 </wgt>
<wgt id='2051'> +9.3443785e+01 </wgt>
<wgt id='2052'> +9.4557960e+01 </wgt>
<wgt id='2053'> +9.4541964e+01 </wgt>
<wgt id='2054'> +9.5594766e+01 </wgt>
<wgt id='2055'> +9.3600689e+01 </wgt>
<wgt id='2056'> +9.7716490e+01 </wgt>
<wgt id='2057'> +9.1716576e+01 </wgt>
<wgt id='2058'> +9.8404536e+01 </wgt>
<wgt id='2059'> +9.1547030e+01 </wgt>
<wgt id='2060'> +9.5979759e+01 </wgt>
<wgt id='2061'> +9.3503448e+01 </wgt>
<wgt id='2062'> +9.4422991e+01 </wgt>
<wgt id='2063'> +1.0107653e+02 </wgt>
<wgt id='2064'> +9.0140340e+01 </wgt>
<wgt id='2065'> +1.1336812e+02 </wgt>
<wgt id='2066'> +1.0650199e+02 </wgt>
<wgt id='2067'> +1.0130609e+02 </wgt>
<wgt id='2068'> +9.2950885e+01 </wgt>
<wgt id='2069'> +9.4432868e+01 </wgt>
<wgt id='2070'> +9.3619233e+01 </wgt>
<wgt id='2071'> +9.3841651e+01 </wgt>
<wgt id='2072'> +1.0159115e+02 </wgt>
<wgt id='2073'> +9.4432564e+01 </wgt>
<wgt id='2074'> +9.2016624e+01 </wgt>
<wgt id='2075'> +9.3062964e+01 </wgt>
<wgt id='2076'> +1.0886224e+02 </wgt>
<wgt id='2077'> +1.0881606e+02 </wgt>
<wgt id='2078'> +1.0877013e+02 </wgt>
<wgt id='2079'> +1.0872389e+02 </wgt>
<wgt id='2080'> +1.0867792e+02 </wgt>
<wgt id='2081'> +1.0863174e+02 </wgt>
<wgt id='2082'> +1.0858572e+02 </wgt>
<wgt id='2083'> +1.0853968e+02 </wgt>
<wgt id='2084'> +1.0849374e+02 </wgt>
<wgt id='2085'> +1.0844755e+02 </wgt>
<wgt id='2086'> +1.0840151e+02 </wgt>
<wgt id='2087'> +1.0835547e+02 </wgt>
<wgt id='2088'> +1.0830939e+02 </wgt>
<wgt id='2089'> +1.0826356e+02 </wgt>
<wgt id='2090'> +1.0821740e+02 </wgt>
<wgt id='2091'> +1.0817136e+02 </wgt>
<wgt id='2092'> +1.0812523e+02 </wgt>
<wgt id='2093'> +1.0807934e+02 </wgt>
<wgt id='2094'> +1.0803317e+02 </wgt>
<wgt id='2095'> +1.0798733e+02 </wgt>
<wgt id='2096'> +1.0794120e+02 </wgt>
<wgt id='2097'> +1.0789525e+02 </wgt>
<wgt id='2098'> +1.0784917e+02 </wgt>
<wgt id='2099'> +1.0780313e+02 </wgt>
<wgt id='2100'> +1.0775706e+02 </wgt>
<wgt id='2101'> +1.0771129e+02 </wgt>
<wgt id='2102'> +1.0766518e+02 </wgt>
<wgt id='2103'> +1.0761921e+02 </wgt>
<wgt id='2104'> +1.0757307e+02 </wgt>
<wgt id='2105'> +1.0752722e+02 </wgt>
<wgt id='2106'> +1.0748112e+02 </wgt>
<wgt id='2107'> +1.1082565e+02 </wgt>
<wgt id='2108'> +1.1223636e+02 </wgt>
<wgt id='2109'> +1.1104703e+02 </wgt>
<wgt id='2110'> +1.1039236e+02 </wgt>
<wgt id='2111'> +1.1163638e+02 </wgt>
<wgt id='2112'> +1.1111013e+02 </wgt>
<wgt id='2113'> +1.0998018e+02 </wgt>
<wgt id='2114'> +1.1022739e+02 </wgt>
<wgt id='2115'> +1.1086119e+02 </wgt>
<wgt id='2116'> +1.1054099e+02 </wgt>
<wgt id='2117'> +1.1055652e+02 </wgt>
<wgt id='2118'> +1.1020373e+02 </wgt>
<wgt id='2119'> +1.1063557e+02 </wgt>
<wgt id='2120'> +1.1027512e+02 </wgt>
<wgt id='2121'> +1.1138499e+02 </wgt>
<wgt id='2122'> +1.1360551e+02 </wgt>
<wgt id='2123'> +1.0896480e+02 </wgt>
<wgt id='2124'> +1.1119272e+02 </wgt>
<wgt id='2125'> +1.1206448e+02 </wgt>
<wgt id='2126'> +1.0866656e+02 </wgt>
<wgt id='2127'> +1.0965239e+02 </wgt>
<wgt id='2128'> +1.1230939e+02 </wgt>
<wgt id='2129'> +1.0884880e+02 </wgt>
<wgt id='2130'> +1.1113287e+02 </wgt>
<wgt id='2131'> +1.1310031e+02 </wgt>
<wgt id='2132'> +1.1153114e+02 </wgt>
<wgt id='2133'> +1.1105529e+02 </wgt>
<wgt id='2134'> +1.1022387e+02 </wgt>
<wgt id='2135'> +1.0980178e+02 </wgt>
<wgt id='2136'> +1.1012878e+02 </wgt>
<wgt id='2137'> +1.1116531e+02 </wgt>
<wgt id='2138'> +1.0833527e+02 </wgt>
<wgt id='2139'> +1.1144014e+02 </wgt>
<wgt id='2140'> +1.0923157e+02 </wgt>
<wgt id='2141'> +1.0935241e+02 </wgt>
<wgt id='2142'> +1.1198116e+02 </wgt>
<wgt id='2143'> +1.1079665e+02 </wgt>
<wgt id='2144'> +1.1096355e+02 </wgt>
<wgt id='2145'> +1.1062182e+02 </wgt>
<wgt id='2146'> +1.1248121e+02 </wgt>
<wgt id='2147'> +1.1129232e+02 </wgt>
<wgt id='2148'> +1.1017457e+02 </wgt>
<wgt id='2149'> +1.1098908e+02 </wgt>
<wgt id='2150'> +1.1055979e+02 </wgt>
<wgt id='2151'> +1.1094887e+02 </wgt>
<wgt id='2152'> +1.1057479e+02 </wgt>
<wgt id='2153'> +1.1050046e+02 </wgt>
<wgt id='2154'> +1.1130417e+02 </wgt>
<wgt id='2155'> +1.1183279e+02 </wgt>
<wgt id='2156'> +1.1074609e+02 </wgt>
<wgt id='2157'> +1.1089763e+02 </wgt>
<wgt id='2158'> +1.1086443e+02 </wgt>
<wgt id='2159'> +1.1088438e+02 </wgt>
<wgt id='2160'> +1.1099618e+02 </wgt>
<wgt id='2161'> +1.1048831e+02 </wgt>
<wgt id='2162'> +1.1072435e+02 </wgt>
<wgt id='2163'> +1.1092264e+02 </wgt>
<wgt id='2164'> +1.1066358e+02 </wgt>
<wgt id='2165'> +1.1013576e+02 </wgt>
<wgt id='2166'> +1.1098404e+02 </wgt>
<wgt id='2167'> +1.1082384e+02 </wgt>
<wgt id='2168'> +1.1073074e+02 </wgt>
<wgt id='2169'> +1.1130657e+02 </wgt>
<wgt id='2170'> +1.1129864e+02 </wgt>
<wgt id='2171'> +1.1097294e+02 </wgt>
<wgt id='2172'> +1.1024495e+02 </wgt>
<wgt id='2173'> +1.1095269e+02 </wgt>
<wgt id='2174'> +1.1090160e+02 </wgt>
<wgt id='2175'> +1.1093205e+02 </wgt>
<wgt id='2176'> +1.1087919e+02 </wgt>
<wgt id='2177'> +1.1065644e+02 </wgt>
<wgt id='2178'> +1.1101110e+02 </wgt>
<wgt id='2179'> +1.1083623e+02 </wgt>
<wgt id='2180'> +1.1054893e+02 </wgt>
<wgt id='2181'> +1.1089827e+02 </wgt>
<wgt id='2182'> +1.1089005e+02 </wgt>
<wgt id='2183'> +1.1078538e+02 </wgt>
<wgt id='2184'> +1.1090099e+02 </wgt>
<wgt id='2185'> +1.1084485e+02 </wgt>
<wgt id='2186'> +1.1078947e+02 </wgt>
<wgt id='2187'> +1.1090129e+02 </wgt>
<wgt id='2188'> +1.1085745e+02 </wgt>
<wgt id='2189'> +1.1088930e+02 </wgt>
<wgt id='2190'> +1.1080973e+02 </wgt>
<wgt id='2191'> +1.1072515e+02 </wgt>
<wgt id='2192'> +1.1082714e+02 </wgt>
<wgt id='2193'> +1.1083717e+02 </wgt>
<wgt id='2194'> +1.1068996e+02 </wgt>
<wgt id='2195'> +1.1084092e+02 </wgt>
<wgt id='2196'> +1.1068184e+02 </wgt>
<wgt id='2197'> +1.1084930e+02 </wgt>
<wgt id='2198'> +1.1087889e+02 </wgt>
<wgt id='2199'> +1.1080562e+02 </wgt>
<wgt id='2200'> +1.1078412e+02 </wgt>
<wgt id='2201'> +1.1082699e+02 </wgt>
<wgt id='2202'> +1.1074684e+02 </wgt>
<wgt id='2203'> +1.1068750e+02 </wgt>
<wgt id='2204'> +1.1081023e+02 </wgt>
<wgt id='2205'> +1.1086519e+02 </wgt>
<wgt id='2206'> +1.1079036e+02 </wgt>
<wgt id='2207'> +1.1076360e+02 </wgt>
<wgt id='2208'> +1.1082551e+02 </wgt>
<wgt id='2209'> +1.1082474e+02 </wgt>
<wgt id='2210'> +1.1082579e+02 </wgt>
<wgt id='2211'> +1.1082581e+02 </wgt>
<wgt id='2212'> +1.1082606e+02 </wgt>
<wgt id='2213'> +1.1082571e+02 </wgt>
<wgt id='2214'> +1.1082503e+02 </wgt>
<wgt id='2215'> +1.1036149e+02 </wgt>
<wgt id='2216'> +1.0606334e+02 </wgt>
<wgt id='2217'> +1.0671779e+02 </wgt>
<wgt id='2218'> +1.0996958e+02 </wgt>
<wgt id='2219'> +1.1016542e+02 </wgt>
<wgt id='2220'> +1.1653280e+02 </wgt>
<wgt id='2221'> +1.0743220e+02 </wgt>
<wgt id='2222'> +1.1186955e+02 </wgt>
<wgt id='2223'> +1.1020500e+02 </wgt>
<wgt id='2224'> +1.1390292e+02 </wgt>
<wgt id='2225'> +1.1322453e+02 </wgt>
<wgt id='2226'> +1.0820249e+02 </wgt>
<wgt id='2227'> +1.1122173e+02 </wgt>
<wgt id='2228'> +1.1315415e+02 </wgt>
<wgt id='2229'> +1.0912768e+02 </wgt>
<wgt id='2230'> +1.0950052e+02 </wgt>
<wgt id='2231'> +1.1738541e+02 </wgt>
<wgt id='2232'> +1.0526588e+02 </wgt>
<wgt id='2233'> +1.0454478e+02 </wgt>
<wgt id='2234'> +1.1157542e+02 </wgt>
<wgt id='2235'> +1.1111010e+02 </wgt>
<wgt id='2236'> +1.1921608e+02 </wgt>
<wgt id='2237'> +1.0962928e+02 </wgt>
<wgt id='2238'> +1.2132908e+02 </wgt>
<wgt id='2239'> +1.2037183e+02 </wgt>
<wgt id='2240'> +1.1103327e+02 </wgt>
<wgt id='2241'> +1.1298629e+02 </wgt>
<wgt id='2242'> +1.0961591e+02 </wgt>
<wgt id='2243'> +1.0802160e+02 </wgt>
<wgt id='2244'> +1.0902107e+02 </wgt>
<wgt id='2245'> +1.1153522e+02 </wgt>
<wgt id='2246'> +1.1427247e+02 </wgt>
<wgt id='2247'> +1.1772437e+02 </wgt>
<wgt id='2248'> +1.0680164e+02 </wgt>
<wgt id='2249'> +1.1326764e+02 </wgt>
<wgt id='2250'> +1.1732405e+02 </wgt>
<wgt id='2251'> +1.1288265e+02 </wgt>
<wgt id='2252'> +1.0588777e+02 </wgt>
<wgt id='2253'> +1.1665067e+02 </wgt>
<wgt id='2254'> +1.0427417e+02 </wgt>
<wgt id='2255'> +1.0811958e+02 </wgt>
<wgt id='2256'> +1.0731449e+02 </wgt>
<wgt id='2257'> +1.0609643e+02 </wgt>
<wgt id='2258'> +1.0806318e+02 </wgt>
<wgt id='2259'> +1.0888922e+02 </wgt>
<wgt id='2260'> +1.1311871e+02 </wgt>
<wgt id='2261'> +1.0330661e+02 </wgt>
<wgt id='2262'> +1.0909119e+02 </wgt>
<wgt id='2263'> +1.1065866e+02 </wgt>
<wgt id='2264'> +1.0566548e+02 </wgt>
<wgt id='2265'> +1.0830368e+02 </wgt>
<wgt id='2266'> +1.0924033e+02 </wgt>
<wgt id='2267'> +1.1567375e+02 </wgt>
<wgt id='2268'> +1.0910549e+02 </wgt>
<wgt id='2269'> +1.1484971e+02 </wgt>
<wgt id='2270'> +1.1352317e+02 </wgt>
<wgt id='2271'> +1.0244690e+02 </wgt>
<wgt id='2272'> +9.9239100e+01 </wgt>
<wgt id='2273'> +1.0667140e+02 </wgt>
<wgt id='2274'> +1.0828729e+02 </wgt>
<wgt id='2275'> +1.1448753e+02 </wgt>
<wgt id='2276'> +1.0987982e+02 </wgt>
<wgt id='2277'> +1.0488487e+02 </wgt>
<wgt id='2278'> +1.1851919e+02 </wgt>
<wgt id='2279'> +9.8957201e+01 </wgt>
<wgt id='2280'> +1.1023289e+02 </wgt>
<wgt id='2281'> +1.1423358e+02 </wgt>
<wgt id='2282'> +1.1626621e+02 </wgt>
<wgt id='2283'> +1.0803939e+02 </wgt>
<wgt id='2284'> +1.1746494e+02 </wgt>
<wgt id='2285'> +1.1222144e+02 </wgt>
<wgt id='2286'> +1.1047213e+02 </wgt>
<wgt id='2287'> +1.1322911e+02 </wgt>
<wgt id='2288'> +1.1046263e+02 </wgt>
<wgt id='2289'> +1.1532067e+02 </wgt>
<wgt id='2290'> +1.0572081e+02 </wgt>
<wgt id='2291'> +1.1514424e+02 </wgt>
<wgt id='2292'> +1.1360392e+02 </wgt>
<wgt id='2293'> +1.1499379e+02 </wgt>
<wgt id='2294'> +1.0541346e+02 </wgt>
<wgt id='2295'> +1.1270931e+02 </wgt>
<wgt id='2296'> +1.1046057e+02 </wgt>
<wgt id='2297'> +1.1544427e+02 </wgt>
<wgt id='2298'> +9.8230828e+01 </wgt>
<wgt id='2299'> +1.1062865e+02 </wgt>
<wgt id='2300'> +1.1182165e+02 </wgt>
<wgt id='2301'> +1.1296911e+02 </wgt>
<wgt id='2302'> +1.0429921e+02 </wgt>
<wgt id='2303'> +1.0659149e+02 </wgt>
<wgt id='2304'> +1.0896369e+02 </wgt>
<wgt id='2305'> +1.1587706e+02 </wgt>
<wgt id='2306'> +1.1244651e+02 </wgt>
<wgt id='2307'> +1.1675239e+02 </wgt>
<wgt id='2308'> +1.0848457e+02 </wgt>
<wgt id='2309'> +1.0843598e+02 </wgt>
<wgt id='2310'> +9.8026292e+01 </wgt>
<wgt id='2311'> +1.1174992e+02 </wgt>
<wgt id='2312'> +1.1655823e+02 </wgt>
<wgt id='2313'> +1.1102935e+02 </wgt>
<wgt id='2314'> +1.0793276e+02 </wgt>
<wgt id='2315'> +9.2400306e+01 </wgt>
<wgt id='2316'> +1.0832858e+02 </wgt>
<wgt id='2317'> +1.1255639e+02 </wgt>
<wgt id='2318'> +1.0777021e+02 </wgt>
<wgt id='2319'> +1.2333462e+02 </wgt>
<wgt id='2320'> +1.5809391e+02 </wgt>
<wgt id='2321'> +1.1053145e+02 </wgt>
<wgt id='2322'> +1.4944568e+02 </wgt>
</rwgt>
</event>
<event>
13      1 +1.1579678e+02 3.78456800e+02 7.81859000e-03 9.71960500e-02
        2 -1    0    0  502    0 +0.0000000000e+00 +0.0000000000e+00 +5.3869702839e+02 5.3869702839e+02 0.0000000000e+00 0.0000e+00 1.0000e+00
       -2 -1    0    0    0  501 +0.0000000000e+00 +0.0000000000e+00 -6.2967842936e+02 6.2967842936e+02 0.0000000000e+00 0.0000e+00 -1.0000e+00
        6  2    1    2  502    0 +3.2858005877e+02 +7.6946716774e+01 +3.8695488235e+02 5.4157032630e+02 1.7227502752e+02 0.0000e+00 0.0000e+00
        5  1    3    3  502    0 +7.6547049106e+01 -4.2645756234e+01 +7.4520207568e+01 1.1502770356e+02 0.0000000000e+00 0.0000e+00 -1.0000e+00
       24  2    3    3    0    0 +2.5203300967e+02 +1.1959247301e+02 +3.1243467478e+02 4.2654262273e+02 8.0623727519e+01 0.0000e+00 0.0000e+00
      -15  1    5    5    0    0 +1.7581834562e+02 +5.6801784441e+01 +2.4544213805e+02 3.0721389373e+02 0.0000000000e+00 0.0000e+00 1.0000e+00
       16  1    5    5    0    0 +7.6214664051e+01 +6.2790688567e+01 +6.6992536730e+01 1.1932872900e+02 0.0000000000e+00 0.0000e+00 -1.0000e+00
       -6  2    1    2    0  503 -3.2009058730e+02 -8.9330830428e+01 -4.0378322891e+02 5.5114726421e+02 1.7402422117e+02 0.0000e+00 0.0000e+00
       -5  1    8    8    0  503 -8.8042976299e+01 +3.5051996383e+01 -7.3283449091e+01 1.1979429050e+02 0.0000000000e+00 0.0000e+00 1.0000e+00
      -24  2    8    8    0    0 -2.3204761100e+02 -1.2438282681e+02 -3.3049977982e+02 4.3135297371e+02 8.6706989855e+01 0.0000e+00 0.0000e+00
       13  1   10   10    0    0 -2.2445942410e+02 -9.0890837463e+01 -2.7879282841e+02 3.6928121882e+02 0.0000000000e+00 0.0000e+00 -1.0000e+00
      -14  1   10   10    0    0 -7.5881869068e+00 -3.3491989348e+01 -5.1706951407e+01 6.2071754888e+01 0.0000000000e+00 0.0000e+00 1.0000e+00
       21  1    1    2  503  501 -8.4894714722e+00 +1.2384113655e+01 -7.4153054410e+01 7.5657867240e+01 0.0000000000e+00 0.0000e+00 -1.0000e+00
<scales pt_clust_1="13000.0" pt_clust_2="13000.0" pt_clust_3="13000.0" pt_clust_4="13000.0" pt_clust_5="13000.0" pt_clust_6="13000.0" pt_clust_7="15.01457"></scales>
<mgrwt>
<rscale>  2 0.37845683e+03</rscale>
<asrwt>  1 0.15014573e+02</asrwt>
<pdfrwt beam="1">  1        2 0.82876466e-01 0.37845683e+03</pdfrwt>
<pdfrwt beam="2">  2       -2       -2 0.96873604e-01 0.85214382e-01 0.15014573e+02 0.37845683e+03</pdfrwt>
<totfact> 0.10352135e-01</totfact>
</mgrwt>
<clustering>
<clus scale="   15.015">  2  5  1 -1</clus>
<clus scale=" 1050.835">  3  4 -1 -1</clus>
<clus scale="  378.457">  1  3  2 -1</clus>
</clustering>
<rwgt>
<wgt id='reference_point'> +1.1579678e+02 </wgt>
<wgt id='eftrwgt0_ctg_-0.754_cqq83_2.978_cqq81_11.175_cqu8_-0.722_cqd8_-22.551_ctq8_11.076_ctu8_-15.131_ctd8_20.128_cqq13_0.321_cqq11_-6.675_cqu1_-3.516_cqd1_6.151_ctq1_5.402_ctu1_-8.742_ctd1_5.367'> +7.3974219e+01 </wgt>
<wgt id='eftrwgt1_ctg_-1.195_cqq83_-15.761_cqq81_-4.235_cqu8_-15.499_cqd8_-10.228_ctq8_-0.966_ctu8_-17.272_ctd8_-16.58_cqq13_-4.893_cqq11_4.278_cqu1_-0.839_cqd1_-4.333_ctq1_2.613_ctu1_-1.417_ctd1_-2.816'> +6.7535653e+01 </wgt>
<wgt id='eftrwgt2_ctg_-1.383_cqq83_5.883_cqq81_-5.515_cqu8_2.394_cqd8_-9.03_ctq8_-0.054_ctu8_-11.517_ctd8_-10.825_cqq13_-0.011_cqq11_4.192_cqu1_6.747_cqd1_8.549_ctq1_7.513_ctu1_-7.841_ctd1_7.605'> +1.6223222e+01 </wgt>
<wgt id='eftrwgt3_ctg_0.83_cqq83_7.564_cqq81_-4.758_cqu8_11.03_cqd8_2.018_ctq8_13.609_ctu8_6.693_ctd8_12.801_cqq13_1.059_cqq11_-4.128_cqu1_0.962_cqd1_4.274_ctq1_8.055_ctu1_-10.409_ctd1_-1.438'> +9.9920948e+00 </wgt>
<wgt id='eftrwgt4_ctg_0.635_cqq83_-11.713_cqq81_0.383_cqu8_10.984_cqd8_-20.924_ctq8_-2.091_ctu8_5.555_ctd8_1.514_cqq13_3.429_cqq11_-0.162_cqu1_-10.649_cqd1_5.475_ctq1_5.872_ctu1_-1.687_ctd1_-8.071'> +2.8483827e+01 </wgt>
<wgt id='eftrwgt5_ctg_0.29_cqq83_4.054_cqq81_-1.527_cqu8_-4.305_cqd8_-20.381_ctq8_12.02_ctu8_-17.198_ctd8_4.416_cqq13_-0.765_cqq11_-1.818_cqu1_-0.276_cqd1_12.045_ctq1_-6.626_ctu1_4.803_ctd1_5.994'> +8.9391675e+00 </wgt>
<wgt id='eftrwgt6_ctg_0.363_cqq83_-5.38_cqq81_10.485_cqu8_-11.932_cqd8_-4.948_ctq8_9.185_ctu8_-12.064_ctd8_17.315_cqq13_-0.222_cqq11_-6.441_cqu1_-7.804_cqd1_-9.036_ctq1_-7.458_ctu1_9.293_ctd1_3.977'> +4.5876644e+01 </wgt>
<wgt id='eftrwgt7_ctg_-1.197_cqq83_-4.451_cqq81_7.597_cqu8_-7.443_cqd8_22.122_ctq8_3.031_ctu8_-12.259_ctd8_16.154_cqq13_-6.717_cqq11_-0.945_cqu1_5.096_cqd1_2.249_ctq1_-0.68_ctu1_-7.751_ctd1_8.44'> +5.1508006e+01 </wgt>
<wgt id='eftrwgt8_ctg_0.542_cqq83_-14.102_cqq81_-2.643_cqu8_18.837_cqd8_-13.941_ctq8_-13.421_ctu8_13.125_ctd8_-6.068_cqq13_-0.748_cqq11_-1.138_cqu1_3.707_cqd1_-4.4_ctq1_2.065_ctu1_5.13_ctd1_4.025'> +5.0093217e+01 </wgt>
<wgt id='eftrwgt9_ctg_1.074_cqq83_4.736_cqq81_-13.002_cqu8_-15.389_cqd8_0.91_ctq8_-9.328_ctu8_7.624_ctd8_-22.019_cqq13_3.75_cqq11_-2.977_cqu1_-3.02_cqd1_-13.923_ctq1_-7.186_ctu1_2.633_ctd1_-7.896'> +1.0084192e+01 </wgt>
<wgt id='eftrwgt10_ctg_1.238_cqq83_-17.533_cqq81_12.633_cqu8_3.116_cqd8_9.117_ctq8_-4.456_ctu8_0.149_ctd8_15.76_cqq13_-4.569_cqq11_4.155_cqu1_6.051_cqd1_-8.105_ctq1_0.824_ctu1_0.75_ctd1_6.587'> +2.8287380e+00 </wgt>
<wgt id='eftrwgt11_ctg_-1.233_cqq83_-17.319_cqq81_-5.312_cqu8_16.53_cqd8_-9.607_ctq8_-3.402_ctu8_-16.447_ctd8_-22.15_cqq13_-0.265_cqq11_4.394_cqu1_-0.387_cqd1_0.421_ctq1_2.017_ctu1_-6.772_ctd1_6.873'> +1.0054686e+02 </wgt>
<wgt id='eftrwgt12_ctg_0.408_cqq83_-9.97_cqq81_3.05_cqu8_8.428_cqd8_-10.45_ctq8_-4.549_ctu8_7.41_ctd8_-18.252_cqq13_4.276_cqq11_0.305_cqu1_-4.657_cqd1_-5.86_ctq1_4.293_ctu1_-6.686_ctd1_-6.47'> +2.4309590e+01 </wgt>
<wgt id='eftrwgt13_ctg_1.091_cqq83_16.651_cqq81_9.034_cqu8_-17.068_cqd8_-16.41_ctq8_5.505_ctu8_-6.023_ctd8_-19.606_cqq13_-1.427_cqq11_2.94_cqu1_-7.645_cqd1_-9.373_ctq1_-6.218_ctu1_1.987_ctd1_-10.94'> +1.3580131e+02 </wgt>
<wgt id='eftrwgt14_ctg_-0.901_cqq83_-3.298_cqq81_-0.028_cqu8_-17.181_cqd8_-17.858_ctq8_-13.488_ctu8_-10.256_ctd8_-0.921_cqq13_4.443_cqq11_-0.633_cqu1_-9.228_cqd1_11.328_ctq1_-0.213_ctu1_-0.551_ctd1_-5.789'> +1.3221667e+01 </wgt>
<wgt id='eftrwgt15_ctg_1.026_cqq83_10.852_cqq81_-7.218_cqu8_6.384_cqd8_16.276_ctq8_-4.737_ctu8_-13.404_ctd8_1.733_cqq13_7.315_cqq11_-8.101_cqu1_-2.738_cqd1_7.548_ctq1_8.479_ctu1_-6.738_ctd1_-5.539'> +4.2411870e+00 </wgt>
<wgt id='eftrwgt16_ctg_-0.132_cqq83_-16.656_cqq81_4.305_cqu8_-12.062_cqd8_4.31_ctq8_13.615_ctu8_3.27_ctd8_11.552_cqq13_-1.799_cqq11_7.423_cqu1_6.843_cqd1_13.535_ctq1_0.146_ctu1_7.054_ctd1_9.686'> +4.7403228e+01 </wgt>
<wgt id='eftrwgt17_ctg_0.712_cqq83_-6.61_cqq81_-4.301_cqu8_-1.403_cqd8_6.303_ctq8_-4.86_ctu8_3.128_ctd8_-14.844_cqq13_0.039_cqq11_-4.957_cqu1_2.629_cqd1_-12.532_ctq1_4.939_ctu1_-4.209_ctd1_-3.655'> +3.7740259e+01 </wgt>
<wgt id='eftrwgt18_ctg_-1.35_cqq83_-11.68_cqq81_4.439_cqu8_13.372_cqd8_-0.653_ctq8_5.688_ctu8_0.67_ctd8_-7.709_cqq13_-5.475_cqq11_-5.399_cqu1_3.601_cqd1_-8.439_ctq1_1.117_ctu1_-0.006_ctd1_13.614'> +1.0559829e+02 </wgt>
<wgt id='eftrwgt19_ctg_0.098_cqq83_15.517_cqq81_-5.712_cqu8_-4.013_cqd8_-7.836_ctq8_-1.046_ctu8_-12.063_ctd8_6.039_cqq13_-3.557_cqq11_7.181_cqu1_6.996_cqd1_-3.116_ctq1_1.869_ctu1_1.545_ctd1_-10.959'> +3.3280771e+01 </wgt>
<wgt id='eftrwgt20_ctg_0.401_cqq83_8.943_cqq81_9.36_cqu8_14.22_cqd8_-14.886_ctq8_8.313_ctu8_5.302_ctd8_-10.568_cqq13_-2.406_cqq11_5.185_cqu1_-6.752_cqd1_-3.344_ctq1_-0.322_ctu1_-1.749_ctd1_2.241'> +7.7690174e+01 </wgt>
<wgt id='eftrwgt21_ctg_0.263_cqq83_-7.003_cqq81_9.705_cqu8_13.582_cqd8_19.058_ctq8_12.946_ctu8_6.424_ctd8_17.248_cqq13_-4.887_cqq11_-3.405_cqu1_10.633_cqd1_-6.948_ctq1_5.694_ctu1_-6.922_ctd1_1.277'> +5.7572462e+01 </wgt>
<wgt id='eftrwgt22_ctg_0.627_cqq83_-17.281_cqq81_-4.961_cqu8_16.938_cqd8_22.735_ctq8_-1.208_ctu8_-3.511_ctd8_-5.122_cqq13_5.387_cqq11_-4.565_cqu1_7.804_cqd1_11.098_ctq1_-1.5_ctu1_8.736_ctd1_13.194'> +8.2339626e+01 </wgt>
<wgt id='eftrwgt23_ctg_-0.648_cqq83_15.811_cqq81_12.009_cqu8_-18.949_cqd8_0.783_ctq8_-3.059_ctu8_-17.702_ctd8_-6.711_cqq13_-4.356_cqq11_3.652_cqu1_-8.368_cqd1_-4.016_ctq1_2.411_ctu1_3.109_ctd1_4.001'> +1.5111367e+02 </wgt>
<wgt id='eftrwgt24_ctg_0.279_cqq83_3.419_cqq81_-12.348_cqu8_-3.685_cqd8_-7.428_ctq8_10.986_ctu8_-5.15_ctd8_-17.732_cqq13_-2.497_cqq11_-5.647_cqu1_0.002_cqd1_-4.035_ctq1_-3.93_ctu1_-1.854_ctd1_8.352'> +6.7804738e+01 </wgt>
<wgt id='eftrwgt25_ctg_1.257_cqq83_8.7_cqq81_-13.787_cqu8_1.396_cqd8_-4.553_ctq8_0.437_ctu8_6.957_ctd8_15.293_cqq13_7.476_cqq11_-5.974_cqu1_-3.383_cqd1_-2.371_ctq1_-0.219_ctu1_2.622_ctd1_-7.856'> +4.5262808e+00 </wgt>
<wgt id='eftrwgt26_ctg_-1.323_cqq83_-5.612_cqq81_0.616_cqu8_6.632_cqd8_-3.336_ctq8_13.782_ctu8_-3.939_ctd8_-15.742_cqq13_2.848_cqq11_5.501_cqu1_-1.125_cqd1_-13.284_ctq1_-0.806_ctu1_-0.98_ctd1_-3.316'> +5.9597788e+01 </wgt>
<wgt id='eftrwgt27_ctg_-1.062_cqq83_-5.785_cqq81_-3.069_cqu8_7.318_cqd8_-18.47_ctq8_-5.182_ctu8_-7.369_ctd8_-7.449_cqq13_-0.119_cqq11_-7.366_cqu1_-4.956_cqd1_-13.113_ctq1_-1.612_ctu1_-8.864_ctd1_-9.975'> +5.9849714e+01 </wgt>
<wgt id='eftrwgt28_ctg_0.241_cqq83_-10.317_cqq81_-13.275_cqu8_-8.248_cqd8_-17.794_ctq8_-12.823_ctu8_-16.47_ctd8_-4.449_cqq13_-2.362_cqq11_4.11_cqu1_-10.775_cqd1_-8.582_ctq1_2.037_ctu1_-10.4_ctd1_1.059'> +9.7866635e+01 </wgt>
<wgt id='eftrwgt29_ctg_0.186_cqq83_-14.559_cqq81_-7.088_cqu8_-18.724_cqd8_-0.974_ctq8_-0.831_ctu8_6.546_ctd8_-21.38_cqq13_-1.637_cqq11_2.85_cqu1_2.42_cqd1_-0.935_ctq1_-8.07_ctu1_5.575_ctd1_0.549'> +7.8393995e+01 </wgt>
<wgt id='eftrwgt30_ctg_-1.395_cqq83_-10.203_cqq81_12.938_cqu8_3.137_cqd8_11.131_ctq8_9.079_ctu8_-0.374_ctd8_-23.313_cqq13_-4.383_cqq11_-1.0_cqu1_1.541_cqd1_2.342_ctq1_-4.241_ctu1_-4.162_ctd1_-12.306'> +2.7387951e+01 </wgt>
<wgt id='eftrwgt31_ctg_0.115_cqq83_-15.901_cqq81_-6.358_cqu8_-16.907_cqd8_-5.747_ctq8_2.066_ctu8_-12.966_ctd8_-16.328_cqq13_-3.096_cqq11_2.684_cqu1_-8.352_cqd1_-6.211_ctq1_2.511_ctu1_5.799_ctd1_9.554'> +8.2264845e+01 </wgt>
<wgt id='eftrwgt32_ctg_1.117_cqq83_2.704_cqq81_7.787_cqu8_-16.533_cqd8_8.904_ctq8_10.253_ctu8_2.612_ctd8_4.645_cqq13_-5.493_cqq11_2.812_cqu1_-7.509_cqd1_-3.19_ctq1_-6.22_ctu1_5.276_ctd1_5.86'> +3.2316234e+01 </wgt>
<wgt id='eftrwgt33_ctg_0.209_cqq83_-8.091_cqq81_-11.607_cqu8_-16.123_cqd8_-8.064_ctq8_-3.29_ctu8_-14.767_ctd8_-13.018_cqq13_-5.739_cqq11_0.542_cqu1_-1.411_cqd1_-8.179_ctq1_-5.997_ctu1_-7.343_ctd1_12.169'> +8.9508576e+01 </wgt>
<wgt id='eftrwgt34_ctg_-1.122_cqq83_6.387_cqq81_-1.268_cqu8_-5.867_cqd8_-9.336_ctq8_-2.052_ctu8_-17.13_ctd8_21.742_cqq13_0.581_cqq11_5.886_cqu1_-10.133_cqd1_-11.29_ctq1_-6.71_ctu1_3.942_ctd1_9.713'> +3.9906318e+01 </wgt>
<wgt id='eftrwgt35_ctg_-1.321_cqq83_10.781_cqq81_5.96_cqu8_-16.967_cqd8_5.511_ctq8_-3.29_ctu8_-3.816_ctd8_-14.387_cqq13_-5.938_cqq11_-2.941_cqu1_-5.98_cqd1_11.576_ctq1_0.788_ctu1_10.277_ctd1_-4.905'> +1.1905318e+02 </wgt>
<wgt id='eftrwgt36_ctg_-0.68_cqq83_-4.656_cqq81_2.64_cqu8_-5.091_cqd8_-6.267_ctq8_12.357_ctu8_4.141_ctd8_8.527_cqq13_4.229_cqq11_-0.357_cqu1_6.729_cqd1_-0.812_ctq1_5.304_ctu1_-6.109_ctd1_-13.243'> +1.3374401e+01 </wgt>
<wgt id='eftrwgt37_ctg_-1.287_cqq83_-9.3_cqq81_-1.066_cqu8_-15.272_cqd8_5.656_ctq8_0.824_ctu8_-7.129_ctd8_-5.439_cqq13_-7.864_cqq11_0.302_cqu1_3.094_cqd1_1.84_ctq1_-4.372_ctu1_-7.563_ctd1_2.217'> +6.6354925e+01 </wgt>
<wgt id='eftrwgt38_ctg_0.789_cqq83_2.618_cqq81_-0.896_cqu8_4.006_cqd8_12.013_ctq8_-9.44_ctu8_-16.781_ctd8_-6.655_cqq13_-5.548_cqq11_2.529_cqu1_7.52_cqd1_-4.256_ctq1_5.745_ctu1_0.798_ctd1_7.829'> +7.9702465e+00 </wgt>
<wgt id='eftrwgt39_ctg_0.721_cqq83_1.632_cqq81_7.373_cqu8_-0.631_cqd8_4.104_ctq8_12.802_ctu8_-10.868_ctd8_-5.968_cqq13_-1.832_cqq11_-3.336_cqu1_-4.17_cqd1_-6.056_ctq1_-3.676_ctu1_5.679_ctd1_-9.027'> +4.2224015e+01 </wgt>
<wgt id='eftrwgt40_ctg_-0.362_cqq83_-1.589_cqq81_6.197_cqu8_-18.27_cqd8_7.832_ctq8_-9.399_ctu8_-6.455_ctd8_10.547_cqq13_-4.378_cqq11_5.514_cqu1_-8.215_cqd1_4.889_ctq1_5.265_ctu1_10.009_ctd1_3.422'> +6.7085353e+00 </wgt>
<wgt id='eftrwgt41_ctg_0.658_cqq83_-10.403_cqq81_3.211_cqu8_-2.337_cqd8_17.509_ctq8_6.996_ctu8_-1.761_ctd8_-2.923_cqq13_7.515_cqq11_-0.097_cqu1_0.074_cqd1_12.92_ctq1_-6.01_ctu1_-8.626_ctd1_2.326'> +4.9415966e+01 </wgt>
<wgt id='eftrwgt42_ctg_0.239_cqq83_-0.972_cqq81_-1.122_cqu8_-17.342_cqd8_-7.199_ctq8_-12.68_ctu8_1.247_ctd8_17.533_cqq13_-6.465_cqq11_-5.436_cqu1_9.489_cqd1_-0.985_ctq1_8.129_ctu1_-5.418_ctd1_5.104'> +1.1383856e+02 </wgt>
<wgt id='eftrwgt43_ctg_-0.649_cqq83_12.017_cqq81_-8.81_cqu8_-11.947_cqd8_-0.617_ctq8_-8.389_ctu8_-11.126_ctd8_-23.747_cqq13_-2.837_cqq11_5.496_cqu1_4.701_cqd1_4.955_ctq1_2.49_ctu1_2.683_ctd1_-7.631'> +9.1647050e+00 </wgt>
<wgt id='eftrwgt44_ctg_0.171_cqq83_12.009_cqq81_1.908_cqu8_4.651_cqd8_-17.53_ctq8_4.385_ctu8_9.354_ctd8_6.605_cqq13_0.349_cqq11_-3.295_cqu1_-5.85_cqd1_-13.524_ctq1_0.629_ctu1_-6.984_ctd1_13.334'> +4.8218486e+01 </wgt>
<wgt id='eftrwgt45_ctg_1.117_cqq83_-1.134_cqq81_0.846_cqu8_-17.819_cqd8_7.834_ctq8_-1.016_ctu8_17.048_ctd8_-16.169_cqq13_3.138_cqq11_-2.054_cqu1_-10.535_cqd1_-6.766_ctq1_2.47_ctu1_6.02_ctd1_11.267'> +1.2434308e+00 </wgt>
<wgt id='eftrwgt46_ctg_0.852_cqq83_-5.375_cqq81_-1.252_cqu8_-6.421_cqd8_17.384_ctq8_4.252_ctu8_6.891_ctd8_10.51_cqq13_-4.608_cqq11_7.589_cqu1_-6.678_cqd1_11.188_ctq1_-3.189_ctu1_-10.063_ctd1_0.955'> +1.2014706e+01 </wgt>
<wgt id='eftrwgt47_ctg_0.672_cqq83_10.633_cqq81_-10.436_cqu8_3.141_cqd8_5.015_ctq8_-11.403_ctu8_-4.418_ctd8_-1.92_cqq13_0.491_cqq11_-8.212_cqu1_-0.701_cqd1_-0.931_ctq1_5.075_ctu1_5.776_ctd1_-9.187'> +4.7815213e+01 </wgt>
<wgt id='eftrwgt48_ctg_0.097_cqq83_-13.235_cqq81_3.083_cqu8_-6.992_cqd8_-21.927_ctq8_-1.972_ctu8_12.828_ctd8_-23.378_cqq13_1.548_cqq11_-7.292_cqu1_-7.809_cqd1_-3.663_ctq1_-0.091_ctu1_3.906_ctd1_0.689'> +4.3522083e+01 </wgt>
<wgt id='eftrwgt49_ctg_1.029_cqq83_-0.471_cqq81_-7.658_cqu8_-14.403_cqd8_16.435_ctq8_-10.202_ctu8_-12.269_ctd8_-13.394_cqq13_-1.09_cqq11_4.914_cqu1_-4.324_cqd1_0.827_ctq1_-4.544_ctu1_-0.962_ctd1_9.864'> +2.0551595e+01 </wgt>
<wgt id='eftrwgt50_ctg_-0.665_cqq83_-14.242_cqq81_-8.115_cqu8_4.63_cqd8_10.452_ctq8_-13.832_ctu8_-13.909_ctd8_-10.071_cqq13_-2.706_cqq11_1.201_cqu1_0.148_cqd1_-0.781_ctq1_-6.102_ctu1_-6.349_ctd1_6.964'> +8.9674283e+01 </wgt>
<wgt id='eftrwgt51_ctg_-0.787_cqq83_-15.261_cqq81_8.809_cqu8_-2.155_cqd8_-17.025_ctq8_-6.971_ctu8_10.751_ctd8_-10.297_cqq13_-0.617_cqq11_7.049_cqu1_-7.986_cqd1_-2.061_ctq1_0.449_ctu1_6.857_ctd1_-13.813'> +3.9794165e+01 </wgt>
<wgt id='eftrwgt52_ctg_0.862_cqq83_17.48_cqq81_4.698_cqu8_8.08_cqd8_9.692_ctq8_3.485_ctu8_11.755_ctd8_-3.559_cqq13_6.645_cqq11_2.713_cqu1_-8.115_cqd1_8.608_ctq1_-6.273_ctu1_7.111_ctd1_5.866'> +1.7386771e+02 </wgt>
<wgt id='eftrwgt53_ctg_-0.903_cqq83_3.892_cqq81_-1.362_cqu8_-12.339_cqd8_-12.919_ctq8_2.258_ctu8_8.165_ctd8_16.95_cqq13_-4.352_cqq11_1.546_cqu1_7.695_cqd1_11.734_ctq1_2.3_ctu1_9.781_ctd1_1.838'> +8.3728934e+00 </wgt>
<wgt id='eftrwgt54_ctg_-0.522_cqq83_-0.949_cqq81_-0.037_cqu8_14.405_cqd8_-4.088_ctq8_-5.643_ctu8_8.684_ctd8_-21.06_cqq13_-6.966_cqq11_-5.093_cqu1_-4.897_cqd1_2.455_ctq1_-3.435_ctu1_3.57_ctd1_-7.932'> +1.2233733e+02 </wgt>
<wgt id='eftrwgt55_ctg_-0.222_cqq83_1.213_cqq81_10.848_cqu8_-14.188_cqd8_-19.129_ctq8_4.966_ctu8_6.833_ctd8_-10.208_cqq13_6.393_cqq11_2.922_cqu1_9.268_cqd1_9.372_ctq1_3.58_ctu1_5.027_ctd1_13.963'> +1.0716859e+02 </wgt>
<wgt id='eftrwgt56_ctg_-0.064_cqq83_-13.896_cqq81_-9.146_cqu8_-12.936_cqd8_6.184_ctq8_-9.142_ctu8_7.671_ctd8_-23.063_cqq13_-5.638_cqq11_0.314_cqu1_3.549_cqd1_13.313_ctq1_7.463_ctu1_-2.827_ctd1_4.274'> +1.1431752e+02 </wgt>
<wgt id='eftrwgt57_ctg_0.55_cqq83_-0.366_cqq81_13.131_cqu8_-11.082_cqd8_-6.326_ctq8_-1.457_ctu8_-10.801_ctd8_-1.042_cqq13_-6.705_cqq11_-3.081_cqu1_2.128_cqd1_13.722_ctq1_-3.878_ctu1_8.438_ctd1_-10.644'> +1.1405402e+02 </wgt>
<wgt id='eftrwgt58_ctg_-0.739_cqq83_-1.927_cqq81_-4.498_cqu8_-7.655_cqd8_-12.724_ctq8_7.311_ctu8_0.6_ctd8_-24.282_cqq13_7.046_cqq11_-1.157_cqu1_2.74_cqd1_1.196_ctq1_0.456_ctu1_10.57_ctd1_6.47'> +3.3510547e+01 </wgt>
<wgt id='eftrwgt59_ctg_-0.809_cqq83_6.461_cqq81_5.164_cqu8_7.348_cqd8_-10.049_ctq8_-9.039_ctu8_11.156_ctd8_17.765_cqq13_2.406_cqq11_-3.454_cqu1_-8.251_cqd1_3.987_ctq1_-2.608_ctu1_-5.906_ctd1_-13.122'> +2.8700226e+01 </wgt>
<wgt id='eftrwgt60_ctg_0.321_cqq83_5.49_cqq81_9.481_cqu8_6.2_cqd8_6.877_ctq8_-2.766_ctu8_2.591_ctd8_5.007_cqq13_4.948_cqq11_-5.846_cqu1_1.836_cqd1_2.37_ctq1_3.758_ctu1_-2.994_ctd1_-9.755'> +4.7164017e+01 </wgt>
<wgt id='eftrwgt61_ctg_0.309_cqq83_13.504_cqq81_0.142_cqu8_15.303_cqd8_-11.281_ctq8_-13.865_ctu8_10.736_ctd8_-18.349_cqq13_0.658_cqq11_-2.407_cqu1_-8.659_cqd1_5.691_ctq1_0.834_ctu1_-7.918_ctd1_8.27'> +3.9942246e+01 </wgt>
<wgt id='eftrwgt62_ctg_-0.755_cqq83_1.09_cqq81_-2.059_cqu8_14.895_cqd8_0.941_ctq8_-0.117_ctu8_-3.607_ctd8_-7.303_cqq13_2.029_cqq11_-6.951_cqu1_-7.372_cqd1_-8.246_ctq1_-0.626_ctu1_-0.403_ctd1_-6.554'> +2.0214890e+01 </wgt>
<wgt id='eftrwgt63_ctg_-1.189_cqq83_3.274_cqq81_5.97_cqu8_-8.688_cqd8_14.017_ctq8_2.273_ctu8_14.433_ctd8_-19.069_cqq13_-4.403_cqq11_3.367_cqu1_-4.681_cqd1_10.796_ctq1_-4.846_ctu1_1.054_ctd1_-13.006'> +1.9996376e+01 </wgt>
<wgt id='eftrwgt64_ctg_0.949_cqq83_12.237_cqq81_-2.266_cqu8_-10.878_cqd8_-7.642_ctq8_-6.632_ctu8_-5.91_ctd8_22.286_cqq13_-6.42_cqq11_-0.839_cqu1_-9.914_cqd1_11.165_ctq1_5.728_ctu1_-2.834_ctd1_-11.273'> +6.2750478e+01 </wgt>
<wgt id='eftrwgt65_ctg_-1.077_cqq83_6.554_cqq81_-5.771_cqu8_-11.958_cqd8_-5.175_ctq8_6.893_ctu8_-15.271_ctd8_-11.605_cqq13_-2.625_cqq11_5.619_cqu1_-3.062_cqd1_8.844_ctq1_8.759_ctu1_7.743_ctd1_-9.404'> +9.3235506e+00 </wgt>
<wgt id='eftrwgt66_ctg_0.739_cqq83_-0.73_cqq81_-3.942_cqu8_0.197_cqd8_-20.568_ctq8_-3.855_ctu8_3.62_ctd8_-1.663_cqq13_1.279_cqq11_-5.868_cqu1_-1.596_cqd1_4.61_ctq1_-0.985_ctu1_5.278_ctd1_1.935'> +2.0333298e+01 </wgt>
<wgt id='eftrwgt67_ctg_-1.144_cqq83_-9.411_cqq81_11.632_cqu8_13.794_cqd8_19.35_ctq8_-9.734_ctu8_17.462_ctd8_-9.013_cqq13_6.095_cqq11_1.653_cqu1_10.71_cqd1_-11.055_ctq1_7.571_ctu1_0.484_ctd1_-1.685'> +5.4141730e+01 </wgt>
<wgt id='eftrwgt68_ctg_0.408_cqq83_3.73_cqq81_-12.673_cqu8_-15.054_cqd8_23.598_ctq8_0.269_ctu8_8.53_ctd8_-19.396_cqq13_1.648_cqq11_6.789_cqu1_-10.541_cqd1_-5.767_ctq1_-2.558_ctu1_-8.764_ctd1_1.857'> +6.8359685e+01 </wgt>
<wgt id='eftrwgt69_ctg_0.663_cqq83_-13.808_cqq81_11.681_cqu8_8.175_cqd8_23.585_ctq8_-6.295_ctu8_5.707_ctd8_-2.004_cqq13_2.652_cqq11_0.351_cqu1_-4.864_cqd1_13.53_ctq1_-5.642_ctu1_0.492_ctd1_8.029'> +6.9613813e+00 </wgt>
<wgt id='eftrwgt70_ctg_-0.454_cqq83_-0.455_cqq81_-2.236_cqu8_8.99_cqd8_14.139_ctq8_-10.102_ctu8_-6.093_ctd8_-2.425_cqq13_3.095_cqq11_-0.462_cqu1_-1.855_cqd1_11.152_ctq1_2.965_ctu1_0.951_ctd1_-6.03'> +6.7155122e+00 </wgt>
<wgt id='eftrwgt71_ctg_-0.477_cqq83_-16.758_cqq81_13.224_cqu8_13.232_cqd8_-5.763_ctq8_9.379_ctu8_-10.048_ctd8_-23.022_cqq13_4.391_cqq11_-6.178_cqu1_-8.099_cqd1_-8.009_ctq1_-1.03_ctu1_-2.674_ctd1_-1.681'> +3.7709064e+00 </wgt>
<wgt id='eftrwgt72_ctg_0.622_cqq83_2.696_cqq81_-10.207_cqu8_5.957_cqd8_7.886_ctq8_4.197_ctu8_8.121_ctd8_-20.035_cqq13_2.851_cqq11_-6.744_cqu1_-10.799_cqd1_2.202_ctq1_-7.508_ctu1_-1.701_ctd1_8.892'> +2.1480596e+01 </wgt>
<wgt id='eftrwgt73_ctg_-0.493_cqq83_10.355_cqq81_1.302_cqu8_-9.783_cqd8_-15.531_ctq8_-10.402_ctu8_5.144_ctd8_6.559_cqq13_5.572_cqq11_-0.688_cqu1_-7.729_cqd1_4.564_ctq1_-4.037_ctu1_3.296_ctd1_-5.207'> +4.7857499e+01 </wgt>
<wgt id='eftrwgt74_ctg_-1.313_cqq83_-14.474_cqq81_-0.652_cqu8_2.59_cqd8_16.401_ctq8_2.461_ctu8_-12.258_ctd8_-5.822_cqq13_6.708_cqq11_-5.017_cqu1_7.523_cqd1_10.388_ctq1_-3.975_ctu1_-5.142_ctd1_-12.623'> +3.8665081e+01 </wgt>
<wgt id='eftrwgt75_ctg_-0.166_cqq83_14.655_cqq81_-13.165_cqu8_13.182_cqd8_17.65_ctq8_8.035_ctu8_-7.41_ctd8_5.594_cqq13_-1.583_cqq11_4.47_cqu1_6.793_cqd1_9.148_ctq1_6.872_ctu1_4.564_ctd1_-3.17'> +9.2613624e+00 </wgt>
<wgt id='eftrwgt76_ctg_0.607_cqq83_-7.784_cqq81_0.889_cqu8_-5.808_cqd8_-18.52_ctq8_-10.702_ctu8_6.093_ctd8_5.795_cqq13_-4.86_cqq11_6.059_cqu1_5.977_cqd1_-3.82_ctq1_-0.432_ctu1_0.091_ctd1_12.704'> +7.7889160e+00 </wgt>
<wgt id='eftrwgt77_ctg_-0.008_cqq83_-13.549_cqq81_-2.371_cqu8_-17.548_cqd8_17.783_ctq8_-12.818_ctu8_-10.851_ctd8_-11.002_cqq13_-7.936_cqq11_-0.409_cqu1_4.737_cqd1_0.464_ctq1_-0.138_ctu1_-4.15_ctd1_2.286'> +1.0213026e+02 </wgt>
<wgt id='eftrwgt78_ctg_0.693_cqq83_-17.302_cqq81_-6.475_cqu8_7.814_cqd8_3.71_ctq8_7.916_ctu8_-4.439_ctd8_21.712_cqq13_-1.558_cqq11_5.054_cqu1_2.274_cqd1_7.748_ctq1_-4.741_ctu1_4.163_ctd1_-9.021'> +1.0068296e+02 </wgt>
<wgt id='eftrwgt79_ctg_-1.245_cqq83_-11.588_cqq81_7.305_cqu8_-18.227_cqd8_-8.677_ctq8_11.343_ctu8_2.055_ctd8_-10.604_cqq13_4.361_cqq11_6.251_cqu1_4.537_cqd1_-0.734_ctq1_3.998_ctu1_-6.261_ctd1_-5.045'> +9.6413819e+01 </wgt>
<wgt id='eftrwgt80_ctg_-0.18_cqq83_-10.265_cqq81_2.0_cqu8_-7.281_cqd8_10.418_ctq8_-8.392_ctu8_-11.821_ctd8_14.446_cqq13_4.32_cqq11_-7.909_cqu1_-1.266_cqd1_-1.485_ctq1_7.422_ctu1_-9.567_ctd1_-7.015'> +2.0169631e+01 </wgt>
<wgt id='eftrwgt81_ctg_0.953_cqq83_-15.744_cqq81_-8.719_cqu8_4.233_cqd8_5.5_ctq8_9.427_ctu8_-3.148_ctd8_13.913_cqq13_7.844_cqq11_-2.685_cqu1_-10.526_cqd1_-11.474_ctq1_1.94_ctu1_-0.862_ctd1_-11.271'> +1.1819897e+02 </wgt>
<wgt id='eftrwgt82_ctg_0.709_cqq83_-3.094_cqq81_5.584_cqu8_5.962_cqd8_-12.068_ctq8_7.256_ctu8_-14.777_ctd8_-14.389_cqq13_-4.278_cqq11_8.12_cqu1_0.179_cqd1_-1.651_ctq1_-8.145_ctu1_2.242_ctd1_-10.245'> +1.3788356e+01 </wgt>
<wgt id='eftrwgt83_ctg_0.687_cqq83_-1.156_cqq81_3.18_cqu8_-3.335_cqd8_-0.404_ctq8_-5.778_ctu8_6.62_ctd8_-17.153_cqq13_-5.912_cqq11_5.654_cqu1_-1.269_cqd1_8.004_ctq1_-1.868_ctu1_0.845_ctd1_4.292'> +1.7144671e+00 </wgt>
<wgt id='eftrwgt84_ctg_-0.183_cqq83_-0.308_cqq81_0.037_cqu8_14.309_cqd8_-5.805_ctq8_9.893_ctu8_-5.881_ctd8_-1.437_cqq13_-2.017_cqq11_-6.656_cqu1_-1.67_cqd1_-5.98_ctq1_-8.794_ctu1_2.683_ctd1_9.412'> +6.5712260e+01 </wgt>
<wgt id='eftrwgt85_ctg_-0.942_cqq83_15.035_cqq81_13.373_cqu8_-5.07_cqd8_16.019_ctq8_-8.366_ctu8_14.649_ctd8_22.16_cqq13_-4.681_cqq11_6.562_cqu1_-1.143_cqd1_-10.901_ctq1_-6.626_ctu1_7.385_ctd1_-3.635'> +1.5860801e+02 </wgt>
<wgt id='eftrwgt86_ctg_-0.142_cqq83_-2.994_cqq81_12.042_cqu8_8.306_cqd8_-8.182_ctq8_-12.155_ctu8_-0.571_ctd8_11.633_cqq13_-5.051_cqq11_1.519_cqu1_-1.733_cqd1_9.994_ctq1_-6.524_ctu1_4.94_ctd1_2.118'> +2.8260200e+01 </wgt>
<wgt id='eftrwgt87_ctg_0.929_cqq83_16.258_cqq81_4.432_cqu8_11.37_cqd8_2.732_ctq8_-0.209_ctu8_11.238_ctd8_0.002_cqq13_-3.184_cqq11_5.425_cqu1_-3.268_cqd1_11.628_ctq1_2.342_ctu1_-8.392_ctd1_13.454'> +9.2626080e+01 </wgt>
<wgt id='eftrwgt88_ctg_0.663_cqq83_-0.312_cqq81_4.634_cqu8_13.091_cqd8_20.152_ctq8_-11.08_ctu8_10.132_ctd8_8.016_cqq13_2.666_cqq11_-0.154_cqu1_10.589_cqd1_-1.792_ctq1_-0.235_ctu1_-1.608_ctd1_11.236'> +1.0274561e+01 </wgt>
<wgt id='eftrwgt89_ctg_-0.7_cqq83_-8.489_cqq81_-4.248_cqu8_-16.694_cqd8_11.319_ctq8_10.136_ctu8_16.621_ctd8_-12.449_cqq13_5.869_cqq11_0.2_cqu1_7.255_cqd1_6.776_ctq1_-7.91_ctu1_7.893_ctd1_-13.519'> +5.1824075e+01 </wgt>
<wgt id='eftrwgt90_ctg_1.035_cqq83_-14.726_cqq81_-10.269_cqu8_8.762_cqd8_-16.804_ctq8_-12.281_ctu8_-9.071_ctd8_-18.776_cqq13_-0.931_cqq11_-5.226_cqu1_2.228_cqd1_0.749_ctq1_4.043_ctu1_-9.625_ctd1_12.055'> +1.3947678e+02 </wgt>
<wgt id='eftrwgt91_ctg_0.582_cqq83_7.693_cqq81_-11.295_cqu8_-2.266_cqd8_14.634_ctq8_4.883_ctu8_17.79_ctd8_11.844_cqq13_-6.479_cqq11_-4.102_cqu1_2.603_cqd1_-3.346_ctq1_-0.515_ctu1_-6.838_ctd1_-11.52'> +9.4425731e+01 </wgt>
<wgt id='eftrwgt92_ctg_-1.029_cqq83_4.889_cqq81_-11.405_cqu8_13.309_cqd8_-14.979_ctq8_-5.195_ctu8_6.668_ctd8_-24.798_cqq13_5.441_cqq11_-0.506_cqu1_-0.753_cqd1_-13.543_ctq1_-8.67_ctu1_-7.915_ctd1_-0.334'> +2.4020145e+01 </wgt>
<wgt id='eftrwgt93_ctg_1.323_cqq83_-4.365_cqq81_-4.298_cqu8_7.237_cqd8_-13.74_ctq8_-0.526_ctu8_-16.032_ctd8_-23.867_cqq13_-2.711_cqq11_8.204_cqu1_-9.783_cqd1_-13.301_ctq1_5.357_ctu1_-4.585_ctd1_3.272'> +3.5884043e+01 </wgt>
<wgt id='eftrwgt94_ctg_0.923_cqq83_-5.687_cqq81_-9.274_cqu8_-6.946_cqd8_-18.634_ctq8_-2.87_ctu8_-10.48_ctd8_20.825_cqq13_0.818_cqq11_7.594_cqu1_-2.651_cqd1_-8.209_ctq1_-4.375_ctu1_-0.453_ctd1_-11.307'> +9.0663971e+01 </wgt>
<wgt id='eftrwgt95_ctg_-0.353_cqq83_16.887_cqq81_4.599_cqu8_5.271_cqd8_15.7_ctq8_9.777_ctu8_16.081_ctd8_11.396_cqq13_-1.084_cqq11_-4.79_cqu1_-0.778_cqd1_12.085_ctq1_-5.567_ctu1_-7.961_ctd1_2.198'> +1.2275225e+02 </wgt>
<wgt id='eftrwgt96_ctg_0.041_cqq83_-5.923_cqq81_-2.955_cqu8_4.903_cqd8_20.523_ctq8_-10.841_ctu8_-16.659_ctd8_-20.437_cqq13_-0.715_cqq11_3.365_cqu1_7.617_cqd1_-8.653_ctq1_-1.465_ctu1_-1.263_ctd1_-7.434'> +1.7409775e+01 </wgt>
<wgt id='eftrwgt97_ctg_0.464_cqq83_6.456_cqq81_3.991_cqu8_-17.621_cqd8_21.05_ctq8_-3.045_ctu8_-1.74_ctd8_-0.321_cqq13_-0.503_cqq11_-7.685_cqu1_3.634_cqd1_-8.072_ctq1_-8.465_ctu1_4.741_ctd1_-8.716'> +8.1240077e+01 </wgt>
<wgt id='eftrwgt98_ctg_1.109_cqq83_-17.675_cqq81_-12.841_cqu8_-7.769_cqd8_-4.881_ctq8_8.767_ctu8_1.909_ctd8_-17.434_cqq13_5.514_cqq11_4.151_cqu1_-4.537_cqd1_10.377_ctq1_-0.495_ctu1_-9.214_ctd1_-2.18'> +2.2838050e+02 </wgt>
<wgt id='eftrwgt99_ctg_0.407_cqq83_-15.227_cqq81_3.076_cqu8_16.069_cqd8_-14.34_ctq8_-10.144_ctu8_-13.132_ctd8_6.768_cqq13_-2.495_cqq11_-6.097_cqu1_-9.127_cqd1_6.952_ctq1_6.568_ctu1_4.211_ctd1_13.935'> +8.3739259e+01 </wgt>
<wgt id='eftrwgt100_ctg_-0.701_cqq83_-0.048_cqq81_-13.163_cqu8_5.634_cqd8_10.956_ctq8_-0.744_ctu8_7.675_ctd8_11.807_cqq13_5.749_cqq11_-2.151_cqu1_8.431_cqd1_-6.532_ctq1_6.71_ctu1_1.894_ctd1_-1.052'> +3.8742488e+01 </wgt>
<wgt id='eftrwgt101_ctg_-0.35_cqq83_14.955_cqq81_13.247_cqu8_12.366_cqd8_-17.494_ctq8_13.947_ctu8_15.163_ctd8_24.316_cqq13_-3.799_cqq11_-3.202_cqu1_6.22_cqd1_12.06_ctq1_-5.011_ctu1_-3.243_ctd1_-4.236'> +1.9921446e+02 </wgt>
<wgt id='eftrwgt102_ctg_0.556_cqq83_-5.267_cqq81_-10.439_cqu8_2.364_cqd8_0.675_ctq8_-12.861_ctu8_-7.633_ctd8_-19.227_cqq13_7.964_cqq11_-4.314_cqu1_-5.928_cqd1_-4.03_ctq1_5.914_ctu1_5.907_ctd1_11.347'> +5.2013925e+01 </wgt>
<wgt id='eftrwgt103_ctg_0.125_cqq83_-12.646_cqq81_10.46_cqu8_18.952_cqd8_-13.688_ctq8_-9.243_ctu8_-14.143_ctd8_-9.888_cqq13_-8.119_cqq11_3.122_cqu1_8.657_cqd1_7.658_ctq1_-7.962_ctu1_3.664_ctd1_-2.552'> +2.2891819e+01 </wgt>
<wgt id='eftrwgt104_ctg_-0.763_cqq83_-3.804_cqq81_11.607_cqu8_-13.419_cqd8_14.176_ctq8_-9.066_ctu8_-15.02_ctd8_-4.358_cqq13_-1.193_cqq11_-6.481_cqu1_4.998_cqd1_-9.789_ctq1_1.777_ctu1_10.322_ctd1_2.64'> +6.0532039e+01 </wgt>
<wgt id='eftrwgt105_ctg_-1.088_cqq83_12.665_cqq81_-11.087_cqu8_18.548_cqd8_-4.797_ctq8_-2.92_ctu8_2.89_ctd8_13.714_cqq13_6.529_cqq11_2.903_cqu1_9.448_cqd1_-11.012_ctq1_-0.553_ctu1_-10.792_ctd1_7.312'> +7.4896158e+01 </wgt>
<wgt id='eftrwgt106_ctg_-0.66_cqq83_13.87_cqq81_-10.837_cqu8_-12.598_cqd8_7.858_ctq8_-12.118_ctu8_-7.151_ctd8_16.078_cqq13_4.226_cqq11_0.29_cqu1_-10.828_cqd1_12.788_ctq1_7.2_ctu1_2.803_ctd1_-12.185'> +2.1060354e+01 </wgt>
<wgt id='eftrwgt107_ctg_0.987_cqq83_4.124_cqq81_-7.722_cqu8_-17.904_cqd8_-9.465_ctq8_-8.335_ctu8_11.217_ctd8_22.691_cqq13_-5.276_cqq11_2.989_cqu1_7.593_cqd1_-5.045_ctq1_1.607_ctu1_3.552_ctd1_13.817'> +5.5587229e+00 </wgt>
<wgt id='eftrwgt108_ctg_-0.161_cqq83_-2.662_cqq81_-3.151_cqu8_9.405_cqd8_-12.787_ctq8_6.797_ctu8_12.29_ctd8_-20.381_cqq13_6.286_cqq11_-1.665_cqu1_-10.66_cqd1_13.551_ctq1_-0.592_ctu1_-10.77_ctd1_-11.103'> +2.1165201e+01 </wgt>
<wgt id='eftrwgt109_ctg_-0.866_cqq83_17.321_cqq81_-1.402_cqu8_15.303_cqd8_-9.712_ctq8_-2.135_ctu8_4.236_ctd8_-2.625_cqq13_6.154_cqq11_-5.703_cqu1_2.095_cqd1_6.678_ctq1_-8.391_ctu1_-3.925_ctd1_1.624'> +5.1833855e+01 </wgt>
<wgt id='eftrwgt110_ctg_0.155_cqq83_-16.958_cqq81_-11.926_cqu8_-4.429_cqd8_12.271_ctq8_12.349_ctu8_9.754_ctd8_-5.943_cqq13_1.387_cqq11_-2.925_cqu1_8.241_cqd1_-0.988_ctq1_8.274_ctu1_-10.609_ctd1_-7.304'> +1.4075449e+02 </wgt>
<wgt id='eftrwgt111_ctg_-1.065_cqq83_14.73_cqq81_-1.172_cqu8_-15.353_cqd8_0.237_ctq8_10.108_ctu8_4.492_ctd8_24.01_cqq13_-1.328_cqq11_0.667_cqu1_-2.509_cqd1_0.719_ctq1_0.384_ctu1_-8.496_ctd1_-3.168'> +3.9977311e+01 </wgt>
<wgt id='eftrwgt112_ctg_0.963_cqq83_-9.182_cqq81_0.049_cqu8_8.605_cqd8_-14.263_ctq8_8.142_ctu8_-8.43_ctd8_-11.958_cqq13_-2.649_cqq11_1.046_cqu1_6.616_cqd1_7.998_ctq1_1.189_ctu1_-6.255_ctd1_6.95'> +1.3283835e+01 </wgt>
<wgt id='eftrwgt113_ctg_1.026_cqq83_-11.499_cqq81_-5.535_cqu8_17.173_cqd8_3.883_ctq8_-9.651_ctu8_-11.427_ctd8_18.837_cqq13_6.015_cqq11_6.509_cqu1_10.344_cqd1_-2.658_ctq1_-2.985_ctu1_-3.104_ctd1_9.041'> +1.7298768e+02 </wgt>
<wgt id='eftrwgt114_ctg_1.167_cqq83_14.15_cqq81_-2.248_cqu8_-3.57_cqd8_15.163_ctq8_-12.657_ctu8_5.129_ctd8_6.614_cqq13_-6.863_cqq11_-3.391_cqu1_-0.777_cqd1_-2.994_ctq1_1.952_ctu1_-7.447_ctd1_11.847'> +1.1418024e+02 </wgt>
<wgt id='eftrwgt115_ctg_0.982_cqq83_-16.13_cqq81_-2.864_cqu8_-3.251_cqd8_13.648_ctq8_-3.377_ctu8_-15.255_ctd8_-20.505_cqq13_6.864_cqq11_6.065_cqu1_1.403_cqd1_13.412_ctq1_6.891_ctu1_-5.305_ctd1_6.959'> +1.9772001e+02 </wgt>
<wgt id='eftrwgt116_ctg_0.484_cqq83_-5.877_cqq81_-0.844_cqu8_-8.226_cqd8_-12.543_ctq8_-7.938_ctu8_-14.308_ctd8_-16.759_cqq13_3.295_cqq11_-4.935_cqu1_1.553_cqd1_-2.747_ctq1_1.896_ctu1_-2.598_ctd1_1.468'> +8.4655074e+00 </wgt>
<wgt id='eftrwgt117_ctg_-0.766_cqq83_13.005_cqq81_4.278_cqu8_-5.789_cqd8_-2.642_ctq8_1.928_ctu8_-17.627_ctd8_13.206_cqq13_-3.352_cqq11_-4.623_cqu1_1.281_cqd1_-0.353_ctq1_-7.888_ctu1_-2.739_ctd1_-3.691'> +1.1445711e+02 </wgt>
<wgt id='eftrwgt118_ctg_-0.026_cqq83_16.863_cqq81_-3.657_cqu8_-14.653_cqd8_19.452_ctq8_-11.093_ctu8_7.169_ctd8_12.713_cqq13_2.219_cqq11_6.829_cqu1_-1.47_cqd1_13.329_ctq1_-8.726_ctu1_4.506_ctd1_-6.731'> +1.0205907e+02 </wgt>
<wgt id='eftrwgt119_ctg_-0.927_cqq83_14.324_cqq81_12.494_cqu8_-15.766_cqd8_-22.63_ctq8_7.771_ctu8_17.012_ctd8_-4.27_cqq13_-4.263_cqq11_7.096_cqu1_5.583_cqd1_7.465_ctq1_3.841_ctu1_9.204_ctd1_12.312'> +1.5155217e+02 </wgt>
<wgt id='eftrwgt120_ctg_-1.301_cqq83_2.61_cqq81_-0.228_cqu8_-13.019_cqd8_-7.21_ctq8_-10.88_ctu8_-12.7_ctd8_-9.515_cqq13_3.421_cqq11_-0.285_cqu1_-1.252_cqd1_-3.317_ctq1_7.885_ctu1_3.534_ctd1_11.001'> +1.1018108e+01 </wgt>
<wgt id='eftrwgt121_ctg_0.544_cqq83_-11.95_cqq81_-0.044_cqu8_-3.43_cqd8_-3.87_ctq8_-7.539_ctu8_-14.796_ctd8_-19.179_cqq13_3.035_cqq11_-7.307_cqu1_1.661_cqd1_-9.45_ctq1_-2.9_ctu1_7.446_ctd1_-4.846'> +3.8912890e+01 </wgt>
<wgt id='eftrwgt122_ctg_0.077_cqq83_12.997_cqq81_8.942_cqu8_-12.333_cqd8_-21.55_ctq8_8.94_ctu8_12.874_ctd8_-23.03_cqq13_7.882_cqq11_-0.681_cqu1_1.4_cqd1_6.361_ctq1_-0.884_ctu1_-0.375_ctd1_1.214'> +1.4408435e+02 </wgt>
<wgt id='eftrwgt123_ctg_-1.357_cqq83_9.311_cqq81_-6.821_cqu8_-3.271_cqd8_-16.074_ctq8_9.326_ctu8_14.404_ctd8_-2.447_cqq13_3.173_cqq11_-3.404_cqu1_2.525_cqd1_5.494_ctq1_-7.91_ctu1_-0.974_ctd1_4.439'> +2.5128662e+00 </wgt>
<wgt id='eftrwgt124_ctg_-1.223_cqq83_-12.321_cqq81_-7.848_cqu8_-2.265_cqd8_-5.02_ctq8_-13.565_ctu8_-9.074_ctd8_2.046_cqq13_-4.347_cqq11_5.557_cqu1_1.21_cqd1_-2.046_ctq1_-6.903_ctu1_-4.355_ctd1_2.297'> +7.1279543e+01 </wgt>
<wgt id='eftrwgt125_ctg_0.961_cqq83_6.0_cqq81_5.561_cqu8_-3.626_cqd8_-19.356_ctq8_-2.864_ctu8_-0.243_ctd8_23.255_cqq13_-8.112_cqq11_-5.996_cqu1_9.108_cqd1_-10.685_ctq1_-6.426_ctu1_-1.269_ctd1_3.35'> +1.9548296e+02 </wgt>
<wgt id='eftrwgt126_ctg_0.285_cqq83_-16.325_cqq81_0.476_cqu8_-16.347_cqd8_22.521_ctq8_-0.468_ctu8_-2.288_ctd8_22.57_cqq13_-7.864_cqq11_-2.689_cqu1_6.85_cqd1_8.701_ctq1_6.612_ctu1_10.799_ctd1_5.338'> +1.3173833e+02 </wgt>
<wgt id='eftrwgt127_ctg_-1.378_cqq83_-17.314_cqq81_-12.704_cqu8_-6.427_cqd8_-12.718_ctq8_4.311_ctu8_-7.334_ctd8_-24.506_cqq13_-8.01_cqq11_5.874_cqu1_0.468_cqd1_8.191_ctq1_-0.277_ctu1_8.517_ctd1_-7.478'> +1.5940912e+02 </wgt>
<wgt id='eftrwgt128_ctg_1.18_cqq83_-1.471_cqq81_2.433_cqu8_10.198_cqd8_23.306_ctq8_-12.125_ctu8_16.403_ctd8_18.18_cqq13_7.781_cqq11_-2.869_cqu1_-7.593_cqd1_-6.942_ctq1_0.572_ctu1_3.932_ctd1_-1.468'> +2.0865816e+01 </wgt>
<wgt id='eftrwgt129_ctg_0.941_cqq83_-4.592_cqq81_6.49_cqu8_-5.317_cqd8_16.947_ctq8_12.635_ctu8_-5.132_ctd8_22.403_cqq13_2.333_cqq11_-2.444_cqu1_7.188_cqd1_-3.684_ctq1_-5.675_ctu1_-4.027_ctd1_-1.358'> +2.1415916e+00 </wgt>
<wgt id='eftrwgt130_ctg_-0.208_cqq83_-17.622_cqq81_-2.397_cqu8_15.786_cqd8_15.249_ctq8_-1.44_ctu8_10.097_ctd8_-10.056_cqq13_-3.196_cqq11_4.986_cqu1_-0.332_cqd1_-13.619_ctq1_2.563_ctu1_1.892_ctd1_2.648'> +6.8831845e+01 </wgt>
<wgt id='eftrwgt131_ctg_1.247_cqq83_-17.63_cqq81_-10.818_cqu8_5.208_cqd8_0.681_ctq8_12.537_ctu8_-14.866_ctd8_3.091_cqq13_2.337_cqq11_-5.924_cqu1_5.379_cqd1_5.986_ctq1_-5.666_ctu1_10.553_ctd1_1.395'> +1.4605092e+02 </wgt>
<wgt id='eftrwgt132_ctg_-0.801_cqq83_7.262_cqq81_9.212_cqu8_-8.732_cqd8_-8.091_ctq8_-1.906_ctu8_3.948_ctd8_13.123_cqq13_2.692_cqq11_8.195_cqu1_0.96_cqd1_-1.571_ctq1_5.243_ctu1_-1.861_ctd1_-9.371'> +1.5885682e+02 </wgt>
<wgt id='eftrwgt133_ctg_-1.257_cqq83_16.117_cqq81_-9.715_cqu8_-7.571_cqd8_1.07_ctq8_2.477_ctu8_-7.002_ctd8_13.477_cqq13_-0.711_cqq11_7.763_cqu1_-6.041_cqd1_-7.251_ctq1_-2.998_ctu1_-2.904_ctd1_-12.567'> +5.0978709e+01 </wgt>
<wgt id='eftrwgt134_ctg_1.354_cqq83_-7.657_cqq81_-1.021_cqu8_-16.291_cqd8_1.184_ctq8_-2.275_ctu8_16.917_ctd8_-5.942_cqq13_5.969_cqq11_3.289_cqu1_-10.263_cqd1_4.064_ctq1_8.35_ctu1_-0.11_ctd1_0.257'> +8.3698688e+01 </wgt>
<wgt id='eftrwgt135_ctg_-0.715_cqq83_-9.614_cqq81_-10.763_cqu8_9.461_cqd8_21.044_ctq8_0.83_ctu8_16.276_ctd8_17.397_cqq13_7.427_cqq11_-7.592_cqu1_5.575_cqd1_-12.777_ctq1_0.413_ctu1_-0.337_ctd1_5.614'> +6.9132033e+01 </wgt>
<wgt id='eftrwgt136_ctg_1.148_cqq83_9.105_cqq81_7.25_cqu8_15.489_cqd8_-14.113_ctq8_-1.534_ctu8_-4.722_ctd8_-14.085_cqq13_7.64_cqq11_5.644_cqu1_6.289_cqd1_-3.464_ctq1_-4.467_ctu1_10.661_ctd1_-10.103'> +2.0331813e+02 </wgt>
<wgt id='eftrwgt137_ctg_0.519_cqq83_-3.88_cqq81_5.428_cqu8_-11.688_cqd8_12.458_ctq8_5.584_ctu8_4.192_ctd8_-4.494_cqq13_0.22_cqq11_6.429_cqu1_0.379_cqd1_-2.464_ctq1_3.48_ctu1_8.707_ctd1_10.184'> +3.9349329e+01 </wgt>
<wgt id='eftrwgt138_ctg_0.044_cqq83_15.014_cqq81_-2.24_cqu8_-0.07_cqd8_15.723_ctq8_4.233_ctu8_15.378_ctd8_22.326_cqq13_5.742_cqq11_-7.973_cqu1_5.127_cqd1_8.3_ctq1_-2.237_ctu1_-6.818_ctd1_9.184'> +3.9444111e+01 </wgt>
<wgt id='eftrwgt139_ctg_0.536_cqq83_3.108_cqq81_-2.815_cqu8_17.298_cqd8_-20.517_ctq8_-0.558_ctu8_5.522_ctd8_9.105_cqq13_7.706_cqq11_-1.121_cqu1_6.904_cqd1_-8.677_ctq1_0.168_ctu1_4.991_ctd1_3.884'> +3.6466069e+01 </wgt>
<wgt id='eftrwgt140_ctg_-1.222_cqq83_14.489_cqq81_7.936_cqu8_-5.001_cqd8_-7.099_ctq8_0.704_ctu8_-16.077_ctd8_15.282_cqq13_3.777_cqq11_4.884_cqu1_-3.897_cqd1_-3.233_ctq1_-0.56_ctu1_1.21_ctd1_-11.922'> +1.6480473e+02 </wgt>
<wgt id='eftrwgt141_ctg_-0.595_cqq83_-16.264_cqq81_7.534_cqu8_-4.512_cqd8_17.409_ctq8_3.217_ctu8_-8.193_ctd8_8.464_cqq13_-7.686_cqq11_-1.06_cqu1_4.135_cqd1_9.485_ctq1_-2.481_ctu1_4.42_ctd1_3.636'> +7.6174713e+01 </wgt>
<wgt id='eftrwgt142_ctg_1.208_cqq83_4.059_cqq81_6.781_cqu8_-5.717_cqd8_-21.408_ctq8_0.083_ctu8_14.943_ctd8_11.388_cqq13_0.694_cqq11_-5.103_cqu1_-7.402_cqd1_13.43_ctq1_3.406_ctu1_2.945_ctd1_5.188'> +4.1245603e+01 </wgt>
<wgt id='eftrwgt143_ctg_0.787_cqq83_2.859_cqq81_-12.404_cqu8_17.905_cqd8_18.147_ctq8_5.594_ctu8_13.171_ctd8_-8.3_cqq13_-1.709_cqq11_3.715_cqu1_-2.267_cqd1_0.319_ctq1_-2.513_ctu1_-6.093_ctd1_0.66'> +1.5397744e+01 </wgt>
<wgt id='eftrwgt144_ctg_0.369_cqq83_12.119_cqq81_10.451_cqu8_-4.308_cqd8_10.751_ctq8_2.903_ctu8_-16.453_ctd8_12.168_cqq13_-7.8_cqq11_-4.495_cqu1_-7.968_cqd1_-11.778_ctq1_-0.673_ctu1_9.838_ctd1_7.574'> +2.2451953e+02 </wgt>
<wgt id='eftrwgt145_ctg_-0.314_cqq83_-7.538_cqq81_9.523_cqu8_-0.965_cqd8_7.921_ctq8_-3.669_ctu8_-17.137_ctd8_13.302_cqq13_-0.272_cqq11_-1.659_cqu1_-4.888_cqd1_2.565_ctq1_-4.075_ctu1_7.665_ctd1_4.628'> +4.8817061e+00 </wgt>
<wgt id='eftrwgt146_ctg_-0.028_cqq83_17.018_cqq81_4.288_cqu8_2.423_cqd8_9.91_ctq8_-1.803_ctu8_-7.374_ctd8_-22.743_cqq13_1.412_cqq11_1.518_cqu1_-5.031_cqd1_4.621_ctq1_-2.805_ctu1_-7.971_ctd1_2.504'> +9.8885993e+01 </wgt>
<wgt id='eftrwgt147_ctg_0.512_cqq83_9.531_cqq81_-2.016_cqu8_15.155_cqd8_-1.954_ctq8_-13.237_ctu8_1.868_ctd8_5.908_cqq13_-7.773_cqq11_7.257_cqu1_4.489_cqd1_2.963_ctq1_-3.777_ctu1_5.458_ctd1_-6.432'> +1.2795661e+01 </wgt>
<wgt id='eftrwgt148_ctg_-0.482_cqq83_17.097_cqq81_10.457_cqu8_-6.705_cqd8_-13.185_ctq8_-4.371_ctu8_14.509_ctd8_-13.32_cqq13_1.822_cqq11_0.354_cqu1_7.002_cqd1_10.541_ctq1_5.822_ctu1_5.744_ctd1_-13.15'> +1.5360458e+02 </wgt>
<wgt id='eftrwgt149_ctg_-0.905_cqq83_0.86_cqq81_-13.515_cqu8_11.771_cqd8_-1.866_ctq8_13.439_ctu8_0.144_ctd8_13.675_cqq13_-5.569_cqq11_-7.731_cqu1_1.84_cqd1_3.468_ctq1_-5.507_ctu1_1.982_ctd1_-13.061'> +1.7582315e+02 </wgt>
<wgt id='eftrwgt150_ctg_0.0_cqq83_-11.426_cqq81_-6.524_cqu8_-16.088_cqd8_-21.27_ctq8_10.524_ctu8_14.233_ctd8_17.255_cqq13_4.89_cqq11_-4.416_cqu1_4.918_cqd1_-11.767_ctq1_1.268_ctu1_3.231_ctd1_-6.475'> +5.0855164e+01 </wgt>
<wgt id='eftrwgt151_ctg_-0.918_cqq83_-17.499_cqq81_-6.826_cqu8_10.016_cqd8_16.971_ctq8_1.599_ctu8_16.783_ctd8_5.312_cqq13_-2.351_cqq11_-1.209_cqu1_0.269_cqd1_-8.867_ctq1_-7.829_ctu1_-1.326_ctd1_-0.175'> +1.1313290e+02 </wgt>
<wgt id='eftrwgt152_ctg_-0.246_cqq83_8.939_cqq81_-6.847_cqu8_-18.344_cqd8_21.999_ctq8_6.606_ctu8_9.509_ctd8_17.198_cqq13_-1.071_cqq11_7.466_cqu1_-6.387_cqd1_-1.912_ctq1_8.495_ctu1_-3.261_ctd1_8.87'> +3.8546457e+01 </wgt>
<wgt id='eftrwgt153_ctg_0.903_cqq83_-16.714_cqq81_4.491_cqu8_13.339_cqd8_3.836_ctq8_10.658_ctu8_1.169_ctd8_-12.868_cqq13_-4.118_cqq11_5.124_cqu1_5.936_cqd1_-5.521_ctq1_-6.529_ctu1_-3.471_ctd1_-8.961'> +2.1811927e+01 </wgt>
<wgt id='eftrwgt154_ctg_-0.773_cqq83_-11.295_cqq81_11.399_cqu8_12.409_cqd8_-7.958_ctq8_-6.63_ctu8_17.921_ctd8_-4.387_cqq13_-1.075_cqq11_-3.648_cqu1_0.733_cqd1_9.925_ctq1_-5.979_ctu1_6.286_ctd1_-8.945'> +1.9797352e+01 </wgt>
<wgt id='eftrwgt155_ctg_-1.155_cqq83_10.436_cqq81_11.789_cqu8_11.375_cqd8_0.293_ctq8_-12.103_ctu8_-1.324_ctd8_-13.307_cqq13_0.647_cqq11_-1.508_cqu1_4.529_cqd1_-4.847_ctq1_-1.864_ctu1_7.458_ctd1_-2.56'> +9.5759331e+01 </wgt>
<wgt id='eftrwgt156_ctg_1.116_cqq83_-1.502_cqq81_7.154_cqu8_-6.575_cqd8_-19.147_ctq8_-2.196_ctu8_15.471_ctd8_-13.501_cqq13_6.413_cqq11_3.8_cqu1_-1.927_cqd1_3.978_ctq1_3.939_ctu1_-0.696_ctd1_7.298'> +9.7634287e+01 </wgt>
<wgt id='eftrwgt157_ctg_-0.739_cqq83_2.709_cqq81_13.851_cqu8_9.744_cqd8_-15.601_ctq8_-3.406_ctu8_0.534_ctd8_13.826_cqq13_-5.94_cqq11_0.154_cqu1_4.119_cqd1_-0.999_ctq1_7.262_ctu1_1.145_ctd1_4.349'> +8.0144607e+01 </wgt>
<wgt id='eftrwgt158_ctg_-0.16_cqq83_8.752_cqq81_-10.353_cqu8_13.772_cqd8_-19.74_ctq8_1.97_ctu8_-17.022_ctd8_-15.946_cqq13_4.368_cqq11_-3.748_cqu1_-3.331_cqd1_1.681_ctq1_0.02_ctu1_3.467_ctd1_11.988'> +3.6548571e-01 </wgt>
<wgt id='eftrwgt159_ctg_-0.773_cqq83_-5.383_cqq81_11.182_cqu8_14.253_cqd8_22.486_ctq8_4.123_ctu8_16.717_ctd8_16.197_cqq13_7.633_cqq11_3.65_cqu1_3.518_cqd1_4.557_ctq1_0.213_ctu1_-8.115_ctd1_5.813'> +1.1535950e+02 </wgt>
<wgt id='eftrwgt160_ctg_-0.954_cqq83_13.029_cqq81_10.509_cqu8_2.914_cqd8_-7.008_ctq8_3.519_ctu8_-4.882_ctd8_-8.587_cqq13_-4.654_cqq11_6.741_cqu1_-8.034_cqd1_8.536_ctq1_7.776_ctu1_8.243_ctd1_-6.062'> +1.1570680e+02 </wgt>
<wgt id='eftrwgt161_ctg_0.783_cqq83_-0.823_cqq81_-10.667_cqu8_6.458_cqd8_-6.599_ctq8_5.205_ctu8_-17.575_ctd8_-8.783_cqq13_-6.096_cqq11_-7.308_cqu1_-4.219_cqd1_4.937_ctq1_-6.352_ctu1_4.953_ctd1_3.017'> +1.7381753e+02 </wgt>
<wgt id='eftrwgt162_ctg_-0.671_cqq83_16.815_cqq81_-12.317_cqu8_1.448_cqd8_10.899_ctq8_4.606_ctu8_-11.122_ctd8_-10.201_cqq13_4.82_cqq11_3.575_cqu1_-8.572_cqd1_11.857_ctq1_5.276_ctu1_-9.587_ctd1_8.531'> +6.6725182e+01 </wgt>
<wgt id='eftrwgt163_ctg_1.242_cqq83_16.122_cqq81_-8.636_cqu8_-5.852_cqd8_7.335_ctq8_-5.7_ctu8_-13.545_ctd8_24.321_cqq13_5.114_cqq11_-6.63_cqu1_-4.255_cqd1_8.437_ctq1_-6.875_ctu1_9.128_ctd1_2.843'> +1.5517084e+01 </wgt>
<wgt id='eftrwgt164_ctg_1.092_cqq83_-5.055_cqq81_-8.599_cqu8_4.203_cqd8_-7.68_ctq8_-11.588_ctu8_0.276_ctd8_17.336_cqq13_-7.727_cqq11_-5.834_cqu1_-7.894_cqd1_-13.963_ctq1_8.207_ctu1_2.956_ctd1_-11.592'> +1.8018690e+02 </wgt>
<wgt id='eftrwgt165_ctg_0.595_cqq83_4.636_cqq81_-0.11_cqu8_-0.581_cqd8_-20.832_ctq8_-0.558_ctu8_4.659_ctd8_14.601_cqq13_-7.948_cqq11_3.039_cqu1_4.976_cqd1_-0.906_ctq1_-5.244_ctu1_-2.665_ctd1_-11.849'> +2.6471840e+01 </wgt>
<wgt id='eftrwgt166_ctg_1.216_cqq83_5.127_cqq81_1.484_cqu8_12.31_cqd8_15.332_ctq8_-1.18_ctu8_2.062_ctd8_7.64_cqq13_-3.138_cqq11_3.748_cqu1_-2.564_cqd1_-4.289_ctq1_4.03_ctu1_7.302_ctd1_-7.704'> +1.1583927e+01 </wgt>
<wgt id='eftrwgt167_ctg_1.033_cqq83_5.72_cqq81_-1.985_cqu8_-0.401_cqd8_0.76_ctq8_-4.788_ctu8_5.904_ctd8_-7.804_cqq13_5.806_cqq11_-6.292_cqu1_-1.952_cqd1_-8.265_ctq1_2.846_ctu1_-6.057_ctd1_7.749'> +4.3010913e+00 </wgt>
<wgt id='eftrwgt168_ctg_-0.37_cqq83_17.55_cqq81_9.651_cqu8_-15.831_cqd8_-2.866_ctq8_-6.609_ctu8_-14.397_ctd8_5.753_cqq13_5.663_cqq11_-8.112_cqu1_-9.915_cqd1_6.099_ctq1_-0.019_ctu1_-1.021_ctd1_-5.252'> +1.4795623e+02 </wgt>
<wgt id='eftrwgt169_ctg_-1.172_cqq83_17.994_cqq81_-4.282_cqu8_-10.241_cqd8_-2.149_ctq8_-9.811_ctu8_-0.052_ctd8_20.563_cqq13_0.796_cqq11_-3.46_cqu1_8.811_cqd1_-11.665_ctq1_2.613_ctu1_-2.034_ctd1_-11.62'> +4.2791477e+01 </wgt>
<wgt id='eftrwgt170_ctg_-1.173_cqq83_-5.111_cqq81_9.87_cqu8_12.84_cqd8_15.747_ctq8_6.145_ctu8_16.166_ctd8_21.901_cqq13_1.621_cqq11_-4.815_cqu1_-6.967_cqd1_-9.672_ctq1_8.708_ctu1_-3.905_ctd1_5.596'> +1.3236137e+01 </wgt>
<wgt id='eftrwgt171_ctg_-0.487_cqq83_-3.728_cqq81_-2.089_cqu8_-8.617_cqd8_-3.165_ctq8_5.221_ctu8_-6.935_ctd8_-10.922_cqq13_2.93_cqq11_-3.943_cqu1_0.026_cqd1_10.454_ctq1_1.412_ctu1_-4.837_ctd1_4.419'> +4.9178024e+00 </wgt>
<wgt id='eftrwgt172_ctg_0.395_cqq83_8.99_cqq81_-3.002_cqu8_-13.401_cqd8_-8.393_ctq8_6.268_ctu8_10.287_ctd8_3.578_cqq13_-0.326_cqq11_0.491_cqu1_-1.452_cqd1_0.292_ctq1_2.055_ctu1_8.333_ctd1_-11.0'> +9.6744080e+00 </wgt>
<wgt id='eftrwgt173_ctg_-0.268_cqq83_-9.609_cqq81_-10.088_cqu8_-10.258_cqd8_2.411_ctq8_-9.923_ctu8_-12.813_ctd8_-11.549_cqq13_-0.115_cqq11_0.881_cqu1_3.83_cqd1_-7.017_ctq1_-5.831_ctu1_5.916_ctd1_9.799'> +6.5986310e+01 </wgt>
<wgt id='eftrwgt174_ctg_0.0_cqq83_14.255_cqq81_-3.162_cqu8_7.632_cqd8_8.455_ctq8_-10.706_ctu8_12.248_ctd8_-7.818_cqq13_-7.674_cqq11_3.169_cqu1_-10.606_cqd1_10.997_ctq1_7.461_ctu1_-1.024_ctd1_-12.78'> +4.0411709e+01 </wgt>
<wgt id='eftrwgt175_ctg_0.97_cqq83_0.362_cqq81_12.475_cqu8_-6.155_cqd8_12.941_ctq8_-11.631_ctu8_12.793_ctd8_5.998_cqq13_5.415_cqq11_3.61_cqu1_3.086_cqd1_11.222_ctq1_-7.83_ctu1_7.604_ctd1_-6.316'> +1.0071835e+02 </wgt>
<wgt id='eftrwgt176_ctg_-0.671_cqq83_9.217_cqq81_12.675_cqu8_-5.504_cqd8_11.909_ctq8_-13.928_ctu8_3.526_ctd8_12.153_cqq13_6.419_cqq11_-4.462_cqu1_-8.472_cqd1_-6.853_ctq1_-5.497_ctu1_9.273_ctd1_7.938'> +9.6074726e+01 </wgt>
<wgt id='eftrwgt177_ctg_-0.305_cqq83_7.149_cqq81_-4.524_cqu8_-16.678_cqd8_-16.144_ctq8_5.076_ctu8_-17.746_ctd8_16.893_cqq13_4.267_cqq11_2.618_cqu1_4.353_cqd1_8.975_ctq1_4.66_ctu1_3.456_ctd1_-10.007'> +4.3653007e+01 </wgt>
<wgt id='eftrwgt178_ctg_-0.022_cqq83_13.793_cqq81_-0.578_cqu8_13.877_cqd8_-10.596_ctq8_10.476_ctu8_5.651_ctd8_8.781_cqq13_7.781_cqq11_-0.157_cqu1_-3.425_cqd1_10.096_ctq1_-6.687_ctu1_-1.677_ctd1_2.543'> +8.6312292e+01 </wgt>
<wgt id='eftrwgt179_ctg_0.497_cqq83_-6.916_cqq81_13.035_cqu8_-5.975_cqd8_12.419_ctq8_5.679_ctu8_-2.58_ctd8_-17.339_cqq13_-3.741_cqq11_-1.097_cqu1_-5.551_cqd1_-0.983_ctq1_-5.692_ctu1_4.263_ctd1_4.456'> +3.0004981e+01 </wgt>
<wgt id='sm_point'> +1.9823037e-01 </wgt>
<wgt id='1001'> +1.1579678e+02 </wgt>
<wgt id='1002'> +9.4362976e+01 </wgt>
<wgt id='1003'> +9.4362976e+01 </wgt>
<wgt id='1004'> +1.1577298e+02 </wgt>
<wgt id='1005'> +8.3700464e+01 </wgt>
<wgt id='1006'> +9.8292619e+01 </wgt>
<wgt id='1007'> +8.1135005e+01 </wgt>
<wgt id='1008'> +8.1135005e+01 </wgt>
<wgt id='1009'> +9.8273732e+01 </wgt>
<wgt id='1010'> +7.2472434e+01 </wgt>
<wgt id='1011'> +1.3851752e+02 </wgt>
<wgt id='1012'> +1.1116585e+02 </wgt>
<wgt id='1013'> +1.1116585e+02 </wgt>
<wgt id='1014'> +1.3848679e+02 </wgt>
<wgt id='1015'> +9.7797048e+01 </wgt>
<wgt id='1016'> +1.1118863e+02 </wgt>
<wgt id='1017'> +9.0693050e+01 </wgt>
<wgt id='1018'> +9.0693050e+01 </wgt>
<wgt id='1019'> +1.1116585e+02 </wgt>
<wgt id='1020'> +8.0489462e+01 </wgt>
<wgt id='1021'> +9.4381047e+01 </wgt>
<wgt id='1022'> +7.7979535e+01 </wgt>
<wgt id='1023'> +7.7979535e+01 </wgt>
<wgt id='1024'> +9.4362976e+01 </wgt>
<wgt id='1025'> +6.9692173e+01 </wgt>
<wgt id='1026'> +1.3300519e+02 </wgt>
<wgt id='1027'> +1.0684243e+02 </wgt>
<wgt id='1028'> +1.0684243e+02 </wgt>
<wgt id='1029'> +1.3297578e+02 </wgt>
<wgt id='1030'> +9.4045258e+01 </wgt>
<wgt id='1031'> +1.2067188e+02 </wgt>
<wgt id='1032'> +9.8273732e+01 </wgt>
<wgt id='1033'> +9.8273732e+01 </wgt>
<wgt id='1034'> +1.2064700e+02 </wgt>
<wgt id='1035'> +8.7121607e+01 </wgt>
<wgt id='1036'> +1.0243079e+02 </wgt>
<wgt id='1037'> +8.4497544e+01 </wgt>
<wgt id='1038'> +8.4497544e+01 </wgt>
<wgt id='1039'> +1.0241104e+02 </wgt>
<wgt id='1040'> +7.5434646e+01 </wgt>
<wgt id='1041'> +1.4434917e+02 </wgt>
<wgt id='1042'> +1.1577298e+02 </wgt>
<wgt id='1043'> +1.1577298e+02 </wgt>
<wgt id='1044'> +1.4431706e+02 </wgt>
<wgt id='1045'> +1.0179437e+02 </wgt>
<wgt id='1046'> +1.3719677e+02 </wgt>
<wgt id='1047'> +1.0022212e+02 </wgt>
<wgt id='1048'> +1.1579678e+02 </wgt>
<wgt id='1049'> +1.1556678e+02 </wgt>
<wgt id='1050'> +1.1599235e+02 </wgt>
<wgt id='1051'> +1.1615116e+02 </wgt>
<wgt id='1052'> +1.1631102e+02 </wgt>
<wgt id='1053'> +1.1461011e+02 </wgt>
<wgt id='1054'> +1.1550503e+02 </wgt>
<wgt id='1055'> +1.1488282e+02 </wgt>
<wgt id='1056'> +1.1437848e+02 </wgt>
<wgt id='1057'> +1.1673285e+02 </wgt>
<wgt id='1058'> +1.1513394e+02 </wgt>
<wgt id='1059'> +1.1639046e+02 </wgt>
<wgt id='1060'> +1.1567717e+02 </wgt>
<wgt id='1061'> +1.1698754e+02 </wgt>
<wgt id='1062'> +1.1519036e+02 </wgt>
<wgt id='1063'> +1.1744232e+02 </wgt>
<wgt id='1064'> +1.1550712e+02 </wgt>
<wgt id='1065'> +1.1603794e+02 </wgt>
<wgt id='1066'> +1.1478452e+02 </wgt>
<wgt id='1067'> +1.1595328e+02 </wgt>
<wgt id='1068'> +1.1591112e+02 </wgt>
<wgt id='1069'> +1.1480782e+02 </wgt>
<wgt id='1070'> +1.1610497e+02 </wgt>
<wgt id='1071'> +1.1589224e+02 </wgt>
<wgt id='1072'> +1.1502160e+02 </wgt>
<wgt id='1073'> +1.1582769e+02 </wgt>
<wgt id='1074'> +1.1585176e+02 </wgt>
<wgt id='1075'> +1.1693348e+02 </wgt>
<wgt id='1076'> +1.1521186e+02 </wgt>
<wgt id='1077'> +1.1736953e+02 </wgt>
<wgt id='1078'> +1.1615045e+02 </wgt>
<wgt id='1079'> +1.1704304e+02 </wgt>
<wgt id='1080'> +1.1532860e+02 </wgt>
<wgt id='1081'> +1.1586880e+02 </wgt>
<wgt id='1082'> +1.1630769e+02 </wgt>
<wgt id='1083'> +1.1531424e+02 </wgt>
<wgt id='1084'> +1.1555869e+02 </wgt>
<wgt id='1085'> +1.1579065e+02 </wgt>
<wgt id='1086'> +1.1573684e+02 </wgt>
<wgt id='1087'> +1.1556604e+02 </wgt>
<wgt id='1088'> +1.1600365e+02 </wgt>
<wgt id='1089'> +1.1580093e+02 </wgt>
<wgt id='1090'> +1.1606365e+02 </wgt>
<wgt id='1091'> +1.1593209e+02 </wgt>
<wgt id='1092'> +1.1548608e+02 </wgt>
<wgt id='1093'> +1.1589013e+02 </wgt>
<wgt id='1094'> +1.1570324e+02 </wgt>
<wgt id='1095'> +1.1548026e+02 </wgt>
<wgt id='1096'> +1.1626088e+02 </wgt>
<wgt id='1097'> +1.1511609e+02 </wgt>
<wgt id='1098'> +1.1615740e+02 </wgt>
<wgt id='1099'> +1.1575522e+02 </wgt>
<wgt id='1100'> +1.1548805e+02 </wgt>
<wgt id='1101'> +1.1584563e+02 </wgt>
<wgt id='1102'> +1.1598747e+02 </wgt>
<wgt id='1103'> +1.1633457e+02 </wgt>
<wgt id='1104'> +1.1623745e+02 </wgt>
<wgt id='1105'> +1.1612884e+02 </wgt>
<wgt id='1106'> +1.1621696e+02 </wgt>
<wgt id='1107'> +1.1597100e+02 </wgt>
<wgt id='1108'> +1.1631673e+02 </wgt>
<wgt id='1109'> +1.1669626e+02 </wgt>
<wgt id='1110'> +1.1608349e+02 </wgt>
<wgt id='1111'> +1.1528074e+02 </wgt>
<wgt id='1112'> +1.1578678e+02 </wgt>
<wgt id='1113'> +1.1594451e+02 </wgt>
<wgt id='1114'> +1.1665090e+02 </wgt>
<wgt id='1115'> +1.1573000e+02 </wgt>
<wgt id='1116'> +1.1595682e+02 </wgt>
<wgt id='1117'> +1.1562458e+02 </wgt>
<wgt id='1118'> +1.1589413e+02 </wgt>
<wgt id='1119'> +1.1545228e+02 </wgt>
<wgt id='1120'> +1.1568929e+02 </wgt>
<wgt id='1121'> +1.1568705e+02 </wgt>
<wgt id='1122'> +1.1561629e+02 </wgt>
<wgt id='1123'> +1.1541431e+02 </wgt>
<wgt id='1124'> +1.1586147e+02 </wgt>
<wgt id='1125'> +1.1627213e+02 </wgt>
<wgt id='1126'> +1.1624599e+02 </wgt>
<wgt id='1127'> +1.1553950e+02 </wgt>
<wgt id='1128'> +1.1585072e+02 </wgt>
<wgt id='1129'> +1.1554048e+02 </wgt>
<wgt id='1130'> +1.1619521e+02 </wgt>
<wgt id='1131'> +1.1571050e+02 </wgt>
<wgt id='1132'> +1.1628539e+02 </wgt>
<wgt id='1133'> +1.1566614e+02 </wgt>
<wgt id='1134'> +1.1587542e+02 </wgt>
<wgt id='1135'> +1.1564491e+02 </wgt>
<wgt id='1136'> +1.1556781e+02 </wgt>
<wgt id='1137'> +1.1600669e+02 </wgt>
<wgt id='1138'> +1.1571959e+02 </wgt>
<wgt id='1139'> +1.1587096e+02 </wgt>
<wgt id='1140'> +1.1556691e+02 </wgt>
<wgt id='1141'> +1.1588317e+02 </wgt>
<wgt id='1142'> +1.1584887e+02 </wgt>
<wgt id='1143'> +1.1576629e+02 </wgt>
<wgt id='1144'> +1.1630385e+02 </wgt>
<wgt id='1145'> +1.1584999e+02 </wgt>
<wgt id='1146'> +1.1580494e+02 </wgt>
<wgt id='1147'> +1.1613642e+02 </wgt>
<wgt id='1148'> +1.1579678e+02 </wgt>
<wgt id='1149'> +1.1083684e+02 </wgt>
<wgt id='1150'> +1.2103880e+02 </wgt>
<wgt id='1151'> +1.1579678e+02 </wgt>
<wgt id='1152'> +1.3041283e+02 </wgt>
<wgt id='1153'> +1.1949358e+02 </wgt>
<wgt id='1154'> +1.1810499e+02 </wgt>
<wgt id='1155'> +1.1898620e+02 </wgt>
<wgt id='1156'> +1.1358842e+02 </wgt>
<wgt id='1157'> +1.1421139e+02 </wgt>
<wgt id='1158'> +1.1234670e+02 </wgt>
<wgt id='1159'> +1.1611318e+02 </wgt>
<wgt id='1160'> +1.1334517e+02 </wgt>
<wgt id='1161'> +1.1200349e+02 </wgt>
<wgt id='1162'> +1.1370528e+02 </wgt>
<wgt id='1163'> +1.1453356e+02 </wgt>
<wgt id='1164'> +1.1212219e+02 </wgt>
<wgt id='1165'> +1.1762041e+02 </wgt>
<wgt id='1166'> +1.1283999e+02 </wgt>
<wgt id='1167'> +1.0855936e+02 </wgt>
<wgt id='1168'> +1.1865704e+02 </wgt>
<wgt id='1169'> +1.1756982e+02 </wgt>
<wgt id='1170'> +1.1858657e+02 </wgt>
<wgt id='1171'> +1.0448657e+02 </wgt>
<wgt id='1172'> +1.2274363e+02 </wgt>
<wgt id='1173'> +1.2175413e+02 </wgt>
<wgt id='1174'> +1.2067560e+02 </wgt>
<wgt id='1175'> +1.1203328e+02 </wgt>
<wgt id='1176'> +1.1267783e+02 </wgt>
<wgt id='1177'> +1.1754246e+02 </wgt>
<wgt id='1178'> +1.2395542e+02 </wgt>
<wgt id='1179'> +1.1710608e+02 </wgt>
<wgt id='1180'> +1.1523840e+02 </wgt>
<wgt id='1181'> +1.1848675e+02 </wgt>
<wgt id='1182'> +1.1997929e+02 </wgt>
<wgt id='1183'> +1.1268249e+02 </wgt>
<wgt id='1184'> +1.1796368e+02 </wgt>
<wgt id='1185'> +1.1913361e+02 </wgt>
<wgt id='1186'> +1.1502880e+02 </wgt>
<wgt id='1187'> +1.1481394e+02 </wgt>
<wgt id='1188'> +1.1765063e+02 </wgt>
<wgt id='1189'> +1.1126778e+02 </wgt>
<wgt id='1190'> +1.1921944e+02 </wgt>
<wgt id='1191'> +1.0983049e+02 </wgt>
<wgt id='1192'> +1.2057573e+02 </wgt>
<wgt id='1193'> +1.1630525e+02 </wgt>
<wgt id='1194'> +1.2490275e+02 </wgt>
<wgt id='1195'> +1.1911618e+02 </wgt>
<wgt id='1196'> +1.1384864e+02 </wgt>
<wgt id='1197'> +1.1647046e+02 </wgt>
<wgt id='1198'> +1.2012736e+02 </wgt>
<wgt id='1199'> +1.1640401e+02 </wgt>
<wgt id='1200'> +1.1809518e+02 </wgt>
<wgt id='1201'> +1.1493164e+02 </wgt>
<wgt id='1202'> +1.1537890e+02 </wgt>
<wgt id='1203'> +1.1008161e+02 </wgt>
<wgt id='1204'> +1.1660078e+02 </wgt>
<wgt id='1205'> +1.1471441e+02 </wgt>
<wgt id='1206'> +1.2257679e+02 </wgt>
<wgt id='1207'> +1.2065792e+02 </wgt>
<wgt id='1208'> +1.1852570e+02 </wgt>
<wgt id='1209'> +1.2220703e+02 </wgt>
<wgt id='1210'> +1.1431397e+02 </wgt>
<wgt id='1211'> +1.1869509e+02 </wgt>
<wgt id='1212'> +1.1617984e+02 </wgt>
<wgt id='1213'> +1.1499228e+02 </wgt>
<wgt id='1214'> +1.1828105e+02 </wgt>
<wgt id='1215'> +1.1386570e+02 </wgt>
<wgt id='1216'> +1.1516345e+02 </wgt>
<wgt id='1217'> +1.1176931e+02 </wgt>
<wgt id='1218'> +1.1796163e+02 </wgt>
<wgt id='1219'> +1.1968572e+02 </wgt>
<wgt id='1220'> +1.1585963e+02 </wgt>
<wgt id='1221'> +1.1668114e+02 </wgt>
<wgt id='1222'> +1.1698689e+02 </wgt>
<wgt id='1223'> +1.0997810e+02 </wgt>
<wgt id='1224'> +1.0115641e+02 </wgt>
<wgt id='1225'> +1.0524210e+02 </wgt>
<wgt id='1226'> +1.1206983e+02 </wgt>
<wgt id='1227'> +1.2235003e+02 </wgt>
<wgt id='1228'> +1.1520781e+02 </wgt>
<wgt id='1229'> +1.1454128e+02 </wgt>
<wgt id='1230'> +1.1384073e+02 </wgt>
<wgt id='1231'> +1.2102358e+02 </wgt>
<wgt id='1232'> +1.2104669e+02 </wgt>
<wgt id='1233'> +1.0855936e+02 </wgt>
<wgt id='1234'> +1.0499424e+02 </wgt>
<wgt id='1235'> +1.1646219e+02 </wgt>
<wgt id='1236'> +1.1279701e+02 </wgt>
<wgt id='1237'> +1.2597488e+02 </wgt>
<wgt id='1238'> +1.1490398e+02 </wgt>
<wgt id='1239'> +1.1903119e+02 </wgt>
<wgt id='1240'> +9.8750698e+01 </wgt>
<wgt id='1241'> +1.1708922e+02 </wgt>
<wgt id='1242'> +1.1592298e+02 </wgt>
<wgt id='1243'> +1.0007137e+02 </wgt>
<wgt id='1244'> +1.0893057e+02 </wgt>
<wgt id='1245'> +1.1433536e+02 </wgt>
<wgt id='1246'> +1.1735133e+02 </wgt>
<wgt id='1247'> +1.1666093e+02 </wgt>
<wgt id='1248'> +1.2040354e+02 </wgt>
<wgt id='1249'> +1.2070816e+02 </wgt>
<wgt id='1250'> +1.1737465e+02 </wgt>
<wgt id='1251'> +1.1455753e+02 </wgt>
<wgt id='1252'> +1.1611238e+02 </wgt>
<wgt id='1253'> +1.1606279e+02 </wgt>
<wgt id='1254'> +1.1633861e+02 </wgt>
<wgt id='1255'> +1.1602470e+02 </wgt>
<wgt id='1256'> +1.1634095e+02 </wgt>
<wgt id='1257'> +1.1635370e+02 </wgt>
<wgt id='1258'> +1.1611399e+02 </wgt>
<wgt id='1259'> +1.1631912e+02 </wgt>
<wgt id='1260'> +1.1663053e+02 </wgt>
<wgt id='1261'> +1.1693136e+02 </wgt>
<wgt id='1262'> +1.1559584e+02 </wgt>
<wgt id='1263'> +1.1573768e+02 </wgt>
<wgt id='1264'> +1.1641755e+02 </wgt>
<wgt id='1265'> +1.1572106e+02 </wgt>
<wgt id='1266'> +1.1644539e+02 </wgt>
<wgt id='1267'> +1.1592968e+02 </wgt>
<wgt id='1268'> +1.1664374e+02 </wgt>
<wgt id='1269'> +1.1577163e+02 </wgt>
<wgt id='1270'> +1.1538041e+02 </wgt>
<wgt id='1271'> +1.1643333e+02 </wgt>
<wgt id='1272'> +1.1575666e+02 </wgt>
<wgt id='1273'> +1.1676189e+02 </wgt>
<wgt id='1274'> +1.1597999e+02 </wgt>
<wgt id='1275'> +1.1536015e+02 </wgt>
<wgt id='1276'> +1.1621890e+02 </wgt>
<wgt id='1277'> +1.1582768e+02 </wgt>
<wgt id='1278'> +1.1467861e+02 </wgt>
<wgt id='1279'> +1.1611145e+02 </wgt>
<wgt id='1280'> +1.1657137e+02 </wgt>
<wgt id='1281'> +1.1537739e+02 </wgt>
<wgt id='1282'> +1.1540589e+02 </wgt>
<wgt id='1283'> +1.1661538e+02 </wgt>
<wgt id='1284'> +1.1668195e+02 </wgt>
<wgt id='1285'> +1.1620174e+02 </wgt>
<wgt id='1286'> +1.1534472e+02 </wgt>
<wgt id='1287'> +1.1790987e+02 </wgt>
<wgt id='1288'> +1.1666440e+02 </wgt>
<wgt id='1289'> +1.1537352e+02 </wgt>
<wgt id='1290'> +1.1656584e+02 </wgt>
<wgt id='1291'> +1.1587187e+02 </wgt>
<wgt id='1292'> +1.1618826e+02 </wgt>
<wgt id='1293'> +1.1626399e+02 </wgt>
<wgt id='1294'> +1.1646267e+02 </wgt>
<wgt id='1295'> +1.1573677e+02 </wgt>
<wgt id='1296'> +1.1649240e+02 </wgt>
<wgt id='1297'> +1.1557811e+02 </wgt>
<wgt id='1298'> +1.1645406e+02 </wgt>
<wgt id='1299'> +1.1612788e+02 </wgt>
<wgt id='1300'> +1.1648448e+02 </wgt>
<wgt id='1301'> +1.1642666e+02 </wgt>
<wgt id='1302'> +1.1613795e+02 </wgt>
<wgt id='1303'> +1.1636105e+02 </wgt>
<wgt id='1304'> +1.1564624e+02 </wgt>
<wgt id='1305'> +1.1579995e+02 </wgt>
<wgt id='1306'> +1.1622409e+02 </wgt>
<wgt id='1307'> +1.1590817e+02 </wgt>
<wgt id='1308'> +1.1623455e+02 </wgt>
<wgt id='1309'> +1.1586892e+02 </wgt>
<wgt id='1310'> +1.1684697e+02 </wgt>
<wgt id='1311'> +1.1581077e+02 </wgt>
<wgt id='1312'> +1.1600786e+02 </wgt>
<wgt id='1313'> +1.1621303e+02 </wgt>
<wgt id='1314'> +1.1597470e+02 </wgt>
<wgt id='1315'> +1.1585877e+02 </wgt>
<wgt id='1316'> +1.1540926e+02 </wgt>
<wgt id='1317'> +1.1626495e+02 </wgt>
<wgt id='1318'> +1.1627376e+02 </wgt>
<wgt id='1319'> +1.1620154e+02 </wgt>
<wgt id='1320'> +1.1609129e+02 </wgt>
<wgt id='1321'> +1.1664632e+02 </wgt>
<wgt id='1322'> +1.1569404e+02 </wgt>
<wgt id='1323'> +1.1576506e+02 </wgt>
<wgt id='1324'> +1.1635866e+02 </wgt>
<wgt id='1325'> +1.1663204e+02 </wgt>
<wgt id='1326'> +1.1617748e+02 </wgt>
<wgt id='1327'> +1.1645117e+02 </wgt>
<wgt id='1328'> +1.1657948e+02 </wgt>
<wgt id='1329'> +1.1630839e+02 </wgt>
<wgt id='1330'> +1.1628603e+02 </wgt>
<wgt id='1331'> +1.1588174e+02 </wgt>
<wgt id='1332'> +1.1650128e+02 </wgt>
<wgt id='1333'> +1.1571592e+02 </wgt>
<wgt id='1334'> +1.1607571e+02 </wgt>
<wgt id='1335'> +1.1610689e+02 </wgt>
<wgt id='1336'> +1.1640157e+02 </wgt>
<wgt id='1337'> +1.1602527e+02 </wgt>
<wgt id='1338'> +1.1610196e+02 </wgt>
<wgt id='1339'> +1.1539287e+02 </wgt>
<wgt id='1340'> +1.1643397e+02 </wgt>
<wgt id='1341'> +1.1626773e+02 </wgt>
<wgt id='1342'> +1.1595937e+02 </wgt>
<wgt id='1343'> +1.1562340e+02 </wgt>
<wgt id='1344'> +1.1639719e+02 </wgt>
<wgt id='1345'> +1.1576671e+02 </wgt>
<wgt id='1346'> +1.1624251e+02 </wgt>
<wgt id='1347'> +1.1613868e+02 </wgt>
<wgt id='1348'> +1.1603232e+02 </wgt>
<wgt id='1349'> +1.1629866e+02 </wgt>
<wgt id='1350'> +1.1573886e+02 </wgt>
<wgt id='1351'> +1.1626028e+02 </wgt>
<wgt id='1352'> +1.1619245e+02 </wgt>
<wgt id='1353'> +1.1083684e+02 </wgt>
<wgt id='1354'> +1.2103880e+02 </wgt>
<wgt id='1355'> +9.2400934e+01 </wgt>
<wgt id='1356'> +9.7138972e+01 </wgt>
<wgt id='1357'> +1.0118975e+02 </wgt>
<wgt id='1358'> +1.0616423e+02 </wgt>
<wgt id='1359'> +1.1275395e+02 </wgt>
<wgt id='1360'> +1.1895447e+02 </wgt>
<wgt id='1361'> +1.2662256e+02 </wgt>
<wgt id='1362'> +1.3188490e+02 </wgt>
<wgt id='1363'> +1.2009173e+02 </wgt>
<wgt id='1364'> +1.2006845e+02 </wgt>
<wgt id='1365'> +1.2010216e+02 </wgt>
<wgt id='1366'> +1.1976647e+02 </wgt>
<wgt id='1367'> +1.2062547e+02 </wgt>
<wgt id='1368'> +1.1974224e+02 </wgt>
<wgt id='1369'> +1.2014055e+02 </wgt>
<wgt id='1370'> +1.2001037e+02 </wgt>
<wgt id='1371'> +1.1998080e+02 </wgt>
<wgt id='1372'> +1.2023883e+02 </wgt>
<wgt id='1373'> +1.1955263e+02 </wgt>
<wgt id='1374'> +1.2001775e+02 </wgt>
<wgt id='1375'> +1.1982308e+02 </wgt>
<wgt id='1376'> +1.2032349e+02 </wgt>
<wgt id='1377'> +1.2057673e+02 </wgt>
<wgt id='1378'> +1.1959190e+02 </wgt>
<wgt id='1379'> +1.2015577e+02 </wgt>
<wgt id='1380'> +1.1989498e+02 </wgt>
<wgt id='1381'> +1.1998365e+02 </wgt>
<wgt id='1382'> +1.2001221e+02 </wgt>
<wgt id='1383'> +1.2003481e+02 </wgt>
<wgt id='1384'> +1.2083814e+02 </wgt>
<wgt id='1385'> +1.2023597e+02 </wgt>
<wgt id='1386'> +1.2056113e+02 </wgt>
<wgt id='1387'> +1.2068196e+02 </wgt>
<wgt id='1388'> +1.1969260e+02 </wgt>
<wgt id='1389'> +1.1978826e+02 </wgt>
<wgt id='1390'> +1.2044206e+02 </wgt>
<wgt id='1391'> +1.2040195e+02 </wgt>
<wgt id='1392'> +1.2081009e+02 </wgt>
<wgt id='1393'> +1.1953657e+02 </wgt>
<wgt id='1394'> +1.2029426e+02 </wgt>
<wgt id='1395'> +1.1932289e+02 </wgt>
<wgt id='1396'> +1.2004575e+02 </wgt>
<wgt id='1397'> +1.1983620e+02 </wgt>
<wgt id='1398'> +1.1918720e+02 </wgt>
<wgt id='1399'> +1.1907859e+02 </wgt>
<wgt id='1400'> +1.1985460e+02 </wgt>
<wgt id='1401'> +1.1937969e+02 </wgt>
<wgt id='1402'> +1.1989694e+02 </wgt>
<wgt id='1403'> +1.1980478e+02 </wgt>
<wgt id='1404'> +1.1923406e+02 </wgt>
<wgt id='1405'> +1.1974411e+02 </wgt>
<wgt id='1406'> +1.2079265e+02 </wgt>
<wgt id='1407'> +1.1956445e+02 </wgt>
<wgt id='1408'> +1.1972378e+02 </wgt>
<wgt id='1409'> +1.1965923e+02 </wgt>
<wgt id='1410'> +1.2040655e+02 </wgt>
<wgt id='1411'> +1.2026395e+02 </wgt>
<wgt id='1412'> +1.1984059e+02 </wgt>
<wgt id='1413'> +1.2068025e+02 </wgt>
<wgt id='1414'> +1.2097761e+02 </wgt>
<wgt id='1415'> +1.2026360e+02 </wgt>
<wgt id='1416'> +1.1974418e+02 </wgt>
<wgt id='1417'> +1.1996823e+02 </wgt>
<wgt id='1418'> +1.1993274e+02 </wgt>
<wgt id='1419'> +1.1969398e+02 </wgt>
<wgt id='1420'> +1.1959307e+02 </wgt>
<wgt id='1421'> +1.1917010e+02 </wgt>
<wgt id='1422'> +1.2040217e+02 </wgt>
<wgt id='1423'> +1.2056877e+02 </wgt>
<wgt id='1424'> +1.2016087e+02 </wgt>
<wgt id='1425'> +1.1999067e+02 </wgt>
<wgt id='1426'> +1.2066576e+02 </wgt>
<wgt id='1427'> +1.2023529e+02 </wgt>
<wgt id='1428'> +1.2010071e+02 </wgt>
<wgt id='1429'> +1.2042497e+02 </wgt>
<wgt id='1430'> +1.2011459e+02 </wgt>
<wgt id='1431'> +1.2037555e+02 </wgt>
<wgt id='1432'> +1.1979034e+02 </wgt>
<wgt id='1433'> +1.1956546e+02 </wgt>
<wgt id='1434'> +1.2002213e+02 </wgt>
<wgt id='1435'> +1.2027808e+02 </wgt>
<wgt id='1436'> +1.1966782e+02 </wgt>
<wgt id='1437'> +1.2013357e+02 </wgt>
<wgt id='1438'> +1.1940069e+02 </wgt>
<wgt id='1439'> +1.2011668e+02 </wgt>
<wgt id='1440'> +1.1988881e+02 </wgt>
<wgt id='1441'> +1.1989721e+02 </wgt>
<wgt id='1442'> +1.1958576e+02 </wgt>
<wgt id='1443'> +1.1998406e+02 </wgt>
<wgt id='1444'> +1.2017603e+02 </wgt>
<wgt id='1445'> +1.2012725e+02 </wgt>
<wgt id='1446'> +1.2027424e+02 </wgt>
<wgt id='1447'> +1.1958060e+02 </wgt>
<wgt id='1448'> +1.2020747e+02 </wgt>
<wgt id='1449'> +1.1995495e+02 </wgt>
<wgt id='1450'> +1.2067632e+02 </wgt>
<wgt id='1451'> +1.1988299e+02 </wgt>
<wgt id='1452'> +1.1942411e+02 </wgt>
<wgt id='1453'> +1.1974087e+02 </wgt>
<wgt id='1454'> +1.2046200e+02 </wgt>
<wgt id='1455'> +1.2011606e+02 </wgt>
<wgt id='1456'> +1.1981616e+02 </wgt>
<wgt id='1457'> +1.2038458e+02 </wgt>
<wgt id='1458'> +1.2051801e+02 </wgt>
<wgt id='1459'> +1.1972434e+02 </wgt>
<wgt id='1460'> +1.2006233e+02 </wgt>
<wgt id='1461'> +1.2019989e+02 </wgt>
<wgt id='1462'> +1.2026336e+02 </wgt>
<wgt id='1463'> +1.1979001e+02 </wgt>
<wgt id='1464'> +1.1565439e+02 </wgt>
<wgt id='1465'> +1.2521798e+02 </wgt>
<wgt id='1466'> +1.1105939e+02 </wgt>
<wgt id='1467'> +1.0994018e+02 </wgt>
<wgt id='1468'> +1.1016012e+02 </wgt>
<wgt id='1469'> +1.1025591e+02 </wgt>
<wgt id='1470'> +1.1092821e+02 </wgt>
<wgt id='1471'> +1.1116489e+02 </wgt>
<wgt id='1472'> +1.1009644e+02 </wgt>
<wgt id='1473'> +1.0890353e+02 </wgt>
<wgt id='1474'> +1.1178918e+02 </wgt>
<wgt id='1475'> +1.1127032e+02 </wgt>
<wgt id='1476'> +1.1064233e+02 </wgt>
<wgt id='1477'> +1.1339157e+02 </wgt>
<wgt id='1478'> +1.0721913e+02 </wgt>
<wgt id='1479'> +1.1373532e+02 </wgt>
<wgt id='1480'> +1.1027440e+02 </wgt>
<wgt id='1481'> +1.1180095e+02 </wgt>
<wgt id='1482'> +1.0889173e+02 </wgt>
<wgt id='1483'> +1.1488832e+02 </wgt>
<wgt id='1484'> +1.0726465e+02 </wgt>
<wgt id='1485'> +1.1180213e+02 </wgt>
<wgt id='1486'> +1.1031927e+02 </wgt>
<wgt id='1487'> +1.0980639e+02 </wgt>
<wgt id='1488'> +1.1175939e+02 </wgt>
<wgt id='1489'> +1.1368943e+02 </wgt>
<wgt id='1490'> +1.0826320e+02 </wgt>
<wgt id='1491'> +1.0876690e+02 </wgt>
<wgt id='1492'> +1.1286276e+02 </wgt>
<wgt id='1493'> +1.1068551e+02 </wgt>
<wgt id='1494'> +1.1169562e+02 </wgt>
<wgt id='1495'> +1.0889128e+02 </wgt>
<wgt id='1496'> +1.1249217e+02 </wgt>
<wgt id='1497'> +1.1395495e+02 </wgt>
<wgt id='1498'> +1.0671769e+02 </wgt>
<wgt id='1499'> +1.1282917e+02 </wgt>
<wgt id='1500'> +1.0957538e+02 </wgt>
<wgt id='1501'> +1.1161617e+02 </wgt>
<wgt id='1502'> +1.1042631e+02 </wgt>
<wgt id='1503'> +1.1279666e+02 </wgt>
<wgt id='1504'> +1.0906163e+02 </wgt>
<wgt id='1505'> +1.1365513e+02 </wgt>
<wgt id='1506'> +1.0741596e+02 </wgt>
<wgt id='1507'> +1.1175882e+02 </wgt>
<wgt id='1508'> +1.1019319e+02 </wgt>
<wgt id='1509'> +1.1113815e+02 </wgt>
<wgt id='1510'> +1.1222942e+02 </wgt>
<wgt id='1511'> +1.0762262e+02 </wgt>
<wgt id='1512'> +1.1139274e+02 </wgt>
<wgt id='1513'> +1.1290516e+02 </wgt>
<wgt id='1514'> +1.0865019e+02 </wgt>
<wgt id='1515'> +1.1130225e+02 </wgt>
<wgt id='1516'> +1.1259962e+02 </wgt>
<wgt id='1517'> +1.1205151e+02 </wgt>
<wgt id='1518'> +1.1127949e+02 </wgt>
<wgt id='1519'> +1.1026872e+02 </wgt>
<wgt id='1520'> +1.0922690e+02 </wgt>
<wgt id='1521'> +1.1016914e+02 </wgt>
<wgt id='1522'> +1.1603557e+02 </wgt>
<wgt id='1523'> +1.0563210e+02 </wgt>
<wgt id='1524'> +1.1688820e+02 </wgt>
<wgt id='1525'> +1.1429754e+02 </wgt>
<wgt id='1526'> +1.1445185e+02 </wgt>
<wgt id='1527'> +1.1583193e+02 </wgt>
<wgt id='1528'> +1.1182745e+02 </wgt>
<wgt id='1529'> +1.1454420e+02 </wgt>
<wgt id='1530'> +1.1658598e+02 </wgt>
<wgt id='1531'> +1.1423789e+02 </wgt>
<wgt id='1532'> +1.1400733e+02 </wgt>
<wgt id='1533'> +1.1143559e+02 </wgt>
<wgt id='1534'> +1.1493652e+02 </wgt>
<wgt id='1535'> +1.1489642e+02 </wgt>
<wgt id='1536'> +1.1135397e+02 </wgt>
<wgt id='1537'> +1.1634217e+02 </wgt>
<wgt id='1538'> +1.1694114e+02 </wgt>
<wgt id='1539'> +1.1166759e+02 </wgt>
<wgt id='1540'> +1.1735627e+02 </wgt>
<wgt id='1541'> +1.0986607e+02 </wgt>
<wgt id='1542'> +1.1744084e+02 </wgt>
<wgt id='1543'> +1.1059057e+02 </wgt>
<wgt id='1544'> +1.1447394e+02 </wgt>
<wgt id='1545'> +1.1406572e+02 </wgt>
<wgt id='1546'> +1.1506440e+02 </wgt>
<wgt id='1547'> +1.1244343e+02 </wgt>
<wgt id='1548'> +1.1357309e+02 </wgt>
<wgt id='1549'> +1.1497640e+02 </wgt>
<wgt id='1550'> +1.1391218e+02 </wgt>
<wgt id='1551'> +1.1446657e+02 </wgt>
<wgt id='1552'> +1.1361390e+02 </wgt>
<wgt id='1553'> +1.1525017e+02 </wgt>
<wgt id='1554'> +1.0929035e+02 </wgt>
<wgt id='1555'> +1.1605890e+02 </wgt>
<wgt id='1556'> +1.1425689e+02 </wgt>
<wgt id='1557'> +1.1434410e+02 </wgt>
<wgt id='1558'> +1.1598035e+02 </wgt>
<wgt id='1559'> +1.1051267e+02 </wgt>
<wgt id='1560'> +1.1522011e+02 </wgt>
<wgt id='1561'> +1.1348168e+02 </wgt>
<wgt id='1562'> +1.1277173e+02 </wgt>
<wgt id='1563'> +1.1612343e+02 </wgt>
<wgt id='1564'> +1.1108288e+02 </wgt>
<wgt id='1565'> +1.1592264e+02 </wgt>
<wgt id='1566'> +1.1178186e+02 </wgt>
<wgt id='1567'> +1.1737016e+02 </wgt>
<wgt id='1568'> +1.1281210e+02 </wgt>
<wgt id='1569'> +1.1577201e+02 </wgt>
<wgt id='1570'> +1.1579883e+02 </wgt>
<wgt id='1571'> +1.1404778e+02 </wgt>
<wgt id='1572'> +1.1194445e+02 </wgt>
<wgt id='1573'> +1.1388487e+02 </wgt>
<wgt id='1574'> +1.1317622e+02 </wgt>
<wgt id='1575'> +1.1452342e+02 </wgt>
<wgt id='1576'> +1.1353399e+02 </wgt>
<wgt id='1577'> +1.1304546e+02 </wgt>
<wgt id='1578'> +1.1350520e+02 </wgt>
<wgt id='1579'> +1.1367523e+02 </wgt>
<wgt id='1580'> +1.1459412e+02 </wgt>
<wgt id='1581'> +1.1766967e+02 </wgt>
<wgt id='1582'> +1.0860002e+02 </wgt>
<wgt id='1583'> +1.2014841e+02 </wgt>
<wgt id='1584'> +1.1378120e+02 </wgt>
<wgt id='1585'> +1.1821901e+02 </wgt>
<wgt id='1586'> +1.1767332e+02 </wgt>
<wgt id='1587'> +1.1882745e+02 </wgt>
<wgt id='1588'> +1.1862427e+02 </wgt>
<wgt id='1589'> +1.1794687e+02 </wgt>
<wgt id='1590'> +1.1787661e+02 </wgt>
<wgt id='1591'> +1.1854403e+02 </wgt>
<wgt id='1592'> +1.1797018e+02 </wgt>
<wgt id='1593'> +1.1849309e+02 </wgt>
<wgt id='1594'> +1.1652129e+02 </wgt>
<wgt id='1595'> +1.1990316e+02 </wgt>
<wgt id='1596'> +1.1778456e+02 </wgt>
<wgt id='1597'> +1.1917861e+02 </wgt>
<wgt id='1598'> +1.1731082e+02 </wgt>
<wgt id='1599'> +1.1985682e+02 </wgt>
<wgt id='1600'> +1.1919843e+02 </wgt>
<wgt id='1601'> +1.1766915e+02 </wgt>
<wgt id='1602'> +1.1738644e+02 </wgt>
<wgt id='1603'> +1.1913060e+02 </wgt>
<wgt id='1604'> +1.1721225e+02 </wgt>
<wgt id='1605'> +1.1908714e+02 </wgt>
<wgt id='1606'> +1.1890208e+02 </wgt>
<wgt id='1607'> +1.1731453e+02 </wgt>
<wgt id='1608'> +1.1795542e+02 </wgt>
<wgt id='1609'> +1.1833343e+02 </wgt>
<wgt id='1610'> +1.1840677e+02 </wgt>
<wgt id='1611'> +1.1805746e+02 </wgt>
<wgt id='1612'> +1.1830887e+02 </wgt>
<wgt id='1613'> +1.1818573e+02 </wgt>
<wgt id='1614'> +1.1744146e+02 </wgt>
<wgt id='1615'> +1.1924486e+02 </wgt>
<wgt id='1616'> +1.2000035e+02 </wgt>
<wgt id='1617'> +1.1657608e+02 </wgt>
<wgt id='1618'> +1.1779067e+02 </wgt>
<wgt id='1619'> +1.1913728e+02 </wgt>
<wgt id='1620'> +1.1784009e+02 </wgt>
<wgt id='1621'> +1.1884460e+02 </wgt>
<wgt id='1622'> +1.1767624e+02 </wgt>
<wgt id='1623'> +1.1864645e+02 </wgt>
<wgt id='1624'> +1.1772842e+02 </wgt>
<wgt id='1625'> +1.1856261e+02 </wgt>
<wgt id='1626'> +1.1663398e+02 </wgt>
<wgt id='1627'> +1.2110978e+02 </wgt>
<wgt id='1628'> +1.1744947e+02 </wgt>
<wgt id='1629'> +1.1838584e+02 </wgt>
<wgt id='1630'> +1.1764298e+02 </wgt>
<wgt id='1631'> +1.1982397e+02 </wgt>
<wgt id='1632'> +1.1848873e+02 </wgt>
<wgt id='1633'> +1.1894360e+02 </wgt>
<wgt id='1634'> +1.2003044e+02 </wgt>
<wgt id='1635'> +1.1825048e+02 </wgt>
<wgt id='1636'> +1.1793234e+02 </wgt>
<wgt id='1637'> +1.1743026e+02 </wgt>
<wgt id='1638'> +1.1857353e+02 </wgt>
<wgt id='1639'> +1.1734086e+02 </wgt>
<wgt id='1640'> +1.1852480e+02 </wgt>
<wgt id='1641'> +1.1857504e+02 </wgt>
<wgt id='1642'> +1.1766433e+02 </wgt>
<wgt id='1643'> +1.1736192e+02 </wgt>
<wgt id='1644'> +1.1850790e+02 </wgt>
<wgt id='1645'> +1.1692485e+02 </wgt>
<wgt id='1646'> +1.1889235e+02 </wgt>
<wgt id='1647'> +1.2060534e+02 </wgt>
<wgt id='1648'> +1.1678200e+02 </wgt>
<wgt id='1649'> +1.1730202e+02 </wgt>
<wgt id='1650'> +1.1870510e+02 </wgt>
<wgt id='1651'> +1.1736728e+02 </wgt>
<wgt id='1652'> +1.1853550e+02 </wgt>
<wgt id='1653'> +1.1684150e+02 </wgt>
<wgt id='1654'> +1.1853829e+02 </wgt>
<wgt id='1655'> +1.1823156e+02 </wgt>
<wgt id='1656'> +1.1753786e+02 </wgt>
<wgt id='1657'> +1.1634873e+02 </wgt>
<wgt id='1658'> +1.1903589e+02 </wgt>
<wgt id='1659'> +1.1691454e+02 </wgt>
<wgt id='1660'> +1.1890959e+02 </wgt>
<wgt id='1661'> +1.1807773e+02 </wgt>
<wgt id='1662'> +1.1747621e+02 </wgt>
<wgt id='1663'> +1.1787702e+02 </wgt>
<wgt id='1664'> +1.1794000e+02 </wgt>
<wgt id='1665'> +1.1786614e+02 </wgt>
<wgt id='1666'> +1.1820413e+02 </wgt>
<wgt id='1667'> +1.1924733e+02 </wgt>
<wgt id='1668'> +1.1536941e+02 </wgt>
<wgt id='1669'> +1.1754620e+02 </wgt>
<wgt id='1670'> +1.1914761e+02 </wgt>
<wgt id='1671'> +1.1895356e+02 </wgt>
<wgt id='1672'> +1.1742586e+02 </wgt>
<wgt id='1673'> +1.1748835e+02 </wgt>
<wgt id='1674'> +1.1858148e+02 </wgt>
<wgt id='1675'> +1.1729601e+02 </wgt>
<wgt id='1676'> +1.1814713e+02 </wgt>
<wgt id='1677'> +1.1980426e+02 </wgt>
<wgt id='1678'> +1.1478172e+02 </wgt>
<wgt id='1679'> +1.1779470e+02 </wgt>
<wgt id='1680'> +1.2041834e+02 </wgt>
<wgt id='1681'> +1.1759842e+02 </wgt>
<wgt id='1682'> +1.1857813e+02 </wgt>
<wgt id='1683'> +1.1927815e+02 </wgt>
<wgt id='1684'> +1.1729659e+02 </wgt>
<wgt id='1685'> +1.1740787e+02 </wgt>
<wgt id='1686'> +1.1806757e+02 </wgt>
<wgt id='1687'> +1.5519816e+02 </wgt>
<wgt id='1688'> +1.1644450e+02 </wgt>
<wgt id='1689'> +1.1642132e+02 </wgt>
<wgt id='1690'> +1.1629883e+02 </wgt>
<wgt id='1691'> +1.1688637e+02 </wgt>
<wgt id='1692'> +1.1645011e+02 </wgt>
<wgt id='1693'> +1.1683237e+02 </wgt>
<wgt id='1694'> +1.1620559e+02 </wgt>
<wgt id='1695'> +1.1685987e+02 </wgt>
<wgt id='1696'> +1.1560039e+02 </wgt>
<wgt id='1697'> +1.1609914e+02 </wgt>
<wgt id='1698'> +1.1679309e+02 </wgt>
<wgt id='1699'> +1.1608928e+02 </wgt>
<wgt id='1700'> +1.1700954e+02 </wgt>
<wgt id='1701'> +1.1663479e+02 </wgt>
<wgt id='1702'> +1.1575703e+02 </wgt>
<wgt id='1703'> +1.1663767e+02 </wgt>
<wgt id='1704'> +1.1639786e+02 </wgt>
<wgt id='1705'> +1.1621154e+02 </wgt>
<wgt id='1706'> +1.1664885e+02 </wgt>
<wgt id='1707'> +1.1649836e+02 </wgt>
<wgt id='1708'> +1.1696212e+02 </wgt>
<wgt id='1709'> +1.1635769e+02 </wgt>
<wgt id='1710'> +1.1599611e+02 </wgt>
<wgt id='1711'> +1.1540787e+02 </wgt>
<wgt id='1712'> +1.1641451e+02 </wgt>
<wgt id='1713'> +1.1654326e+02 </wgt>
<wgt id='1714'> +1.1701625e+02 </wgt>
<wgt id='1715'> +1.1558566e+02 </wgt>
<wgt id='1716'> +1.1815200e+02 </wgt>
<wgt id='1717'> +1.1631435e+02 </wgt>
<wgt id='1718'> +1.1573965e+02 </wgt>
<wgt id='1719'> +1.1613292e+02 </wgt>
<wgt id='1720'> +1.1569111e+02 </wgt>
<wgt id='1721'> +1.1647265e+02 </wgt>
<wgt id='1722'> +1.1560707e+02 </wgt>
<wgt id='1723'> +1.1544359e+02 </wgt>
<wgt id='1724'> +1.1549245e+02 </wgt>
<wgt id='1725'> +1.1575251e+02 </wgt>
<wgt id='1726'> +1.1612043e+02 </wgt>
<wgt id='1727'> +1.1613876e+02 </wgt>
<wgt id='1728'> +1.1580810e+02 </wgt>
<wgt id='1729'> +1.1524009e+02 </wgt>
<wgt id='1730'> +1.1633660e+02 </wgt>
<wgt id='1731'> +1.1437102e+02 </wgt>
<wgt id='1732'> +1.1588192e+02 </wgt>
<wgt id='1733'> +1.1599743e+02 </wgt>
<wgt id='1734'> +1.1466566e+02 </wgt>
<wgt id='1735'> +1.1707892e+02 </wgt>
<wgt id='1736'> +1.1659358e+02 </wgt>
<wgt id='1737'> +1.1519487e+02 </wgt>
<wgt id='1738'> +1.1614505e+02 </wgt>
<wgt id='1739'> +1.1588213e+02 </wgt>
<wgt id='1740'> +1.1582456e+02 </wgt>
<wgt id='1741'> +1.1739798e+02 </wgt>
<wgt id='1742'> +1.1529677e+02 </wgt>
<wgt id='1743'> +1.1391820e+02 </wgt>
<wgt id='1744'> +1.1529264e+02 </wgt>
<wgt id='1745'> +1.1680460e+02 </wgt>
<wgt id='1746'> +1.1514475e+02 </wgt>
<wgt id='1747'> +1.1566961e+02 </wgt>
<wgt id='1748'> +1.1662500e+02 </wgt>
<wgt id='1749'> +1.1549500e+02 </wgt>
<wgt id='1750'> +1.1606925e+02 </wgt>
<wgt id='1751'> +1.1622551e+02 </wgt>
<wgt id='1752'> +1.1610038e+02 </wgt>
<wgt id='1753'> +1.1630195e+02 </wgt>
<wgt id='1754'> +1.1554927e+02 </wgt>
<wgt id='1755'> +1.1588214e+02 </wgt>
<wgt id='1756'> +1.1602413e+02 </wgt>
<wgt id='1757'> +1.1659217e+02 </wgt>
<wgt id='1758'> +1.1591015e+02 </wgt>
<wgt id='1759'> +1.1602152e+02 </wgt>
<wgt id='1760'> +1.1631481e+02 </wgt>
<wgt id='1761'> +1.1564785e+02 </wgt>
<wgt id='1762'> +1.1559417e+02 </wgt>
<wgt id='1763'> +1.1641618e+02 </wgt>
<wgt id='1764'> +1.1568673e+02 </wgt>
<wgt id='1765'> +1.1546543e+02 </wgt>
<wgt id='1766'> +1.1586389e+02 </wgt>
<wgt id='1767'> +1.1559469e+02 </wgt>
<wgt id='1768'> +1.1570535e+02 </wgt>
<wgt id='1769'> +1.1618812e+02 </wgt>
<wgt id='1770'> +1.1583200e+02 </wgt>
<wgt id='1771'> +1.1558859e+02 </wgt>
<wgt id='1772'> +1.1572143e+02 </wgt>
<wgt id='1773'> +1.1568347e+02 </wgt>
<wgt id='1774'> +1.1591442e+02 </wgt>
<wgt id='1775'> +1.1606385e+02 </wgt>
<wgt id='1776'> +1.1550168e+02 </wgt>
<wgt id='1777'> +1.1481419e+02 </wgt>
<wgt id='1778'> +1.1576922e+02 </wgt>
<wgt id='1779'> +1.1581694e+02 </wgt>
<wgt id='1780'> +1.1501146e+02 </wgt>
<wgt id='1781'> +1.1493320e+02 </wgt>
<wgt id='1782'> +1.1550235e+02 </wgt>
<wgt id='1783'> +1.1573923e+02 </wgt>
<wgt id='1784'> +1.1502867e+02 </wgt>
<wgt id='1785'> +1.1562913e+02 </wgt>
<wgt id='1786'> +1.1584275e+02 </wgt>
<wgt id='1787'> +1.1586632e+02 </wgt>
<wgt id='1788'> +1.1542781e+02 </wgt>
<wgt id='1789'> +1.1564314e+02 </wgt>
<wgt id='1790'> +1.1605770e+02 </wgt>
<wgt id='1791'> +1.1638600e+02 </wgt>
<wgt id='1792'> +1.1553010e+02 </wgt>
<wgt id='1793'> +1.1582373e+02 </wgt>
<wgt id='1794'> +1.1576982e+02 </wgt>
<wgt id='1795'> +1.1605842e+02 </wgt>
<wgt id='1796'> +1.1521573e+02 </wgt>
<wgt id='1797'> +1.1641905e+02 </wgt>
<wgt id='1798'> +1.1658069e+02 </wgt>
<wgt id='1799'> +1.1629746e+02 </wgt>
<wgt id='1800'> +1.1549831e+02 </wgt>
<wgt id='1801'> +1.1597183e+02 </wgt>
<wgt id='1802'> +1.1590657e+02 </wgt>
<wgt id='1803'> +1.1529801e+02 </wgt>
<wgt id='1804'> +1.1616408e+02 </wgt>
<wgt id='1805'> +1.1562350e+02 </wgt>
<wgt id='1806'> +1.1563690e+02 </wgt>
<wgt id='1807'> +1.1551230e+02 </wgt>
<wgt id='1808'> +1.1590463e+02 </wgt>
<wgt id='1809'> +1.1549527e+02 </wgt>
<wgt id='1810'> +1.1584646e+02 </wgt>
<wgt id='1811'> +1.1546812e+02 </wgt>
<wgt id='1812'> +1.1567915e+02 </wgt>
<wgt id='1813'> +1.1568432e+02 </wgt>
<wgt id='1814'> +1.1580583e+02 </wgt>
<wgt id='1815'> +1.1584929e+02 </wgt>
<wgt id='1816'> +1.1559191e+02 </wgt>
<wgt id='1817'> +1.1590201e+02 </wgt>
<wgt id='1818'> +1.1580032e+02 </wgt>
<wgt id='1819'> +1.1116686e+02 </wgt>
<wgt id='1820'> +1.2023617e+02 </wgt>
<wgt id='1821'> +1.1397627e+02 </wgt>
<wgt id='1822'> +1.1459760e+02 </wgt>
<wgt id='1823'> +1.1390359e+02 </wgt>
<wgt id='1824'> +1.1408739e+02 </wgt>
<wgt id='1825'> +1.1475849e+02 </wgt>
<wgt id='1826'> +1.1439052e+02 </wgt>
<wgt id='1827'> +1.1372061e+02 </wgt>
<wgt id='1828'> +1.1389137e+02 </wgt>
<wgt id='1829'> +1.1396960e+02 </wgt>
<wgt id='1830'> +1.1372784e+02 </wgt>
<wgt id='1831'> +1.1383643e+02 </wgt>
<wgt id='1832'> +1.1379487e+02 </wgt>
<wgt id='1833'> +1.1394693e+02 </wgt>
<wgt id='1834'> +1.1394672e+02 </wgt>
<wgt id='1835'> +1.1435665e+02 </wgt>
<wgt id='1836'> +1.1606008e+02 </wgt>
<wgt id='1837'> +1.1310367e+02 </wgt>
<wgt id='1838'> +1.1380335e+02 </wgt>
<wgt id='1839'> +1.1526157e+02 </wgt>
<wgt id='1840'> +1.1247396e+02 </wgt>
<wgt id='1841'> +1.1284497e+02 </wgt>
<wgt id='1842'> +1.1473534e+02 </wgt>
<wgt id='1843'> +1.1256508e+02 </wgt>
<wgt id='1844'> +1.1410896e+02 </wgt>
<wgt id='1845'> +1.1526751e+02 </wgt>
<wgt id='1846'> +1.1432023e+02 </wgt>
<wgt id='1847'> +1.1377583e+02 </wgt>
<wgt id='1848'> +1.1386271e+02 </wgt>
<wgt id='1849'> +1.1342463e+02 </wgt>
<wgt id='1850'> +1.1354796e+02 </wgt>
<wgt id='1851'> +1.1392767e+02 </wgt>
<wgt id='1852'> +1.1290562e+02 </wgt>
<wgt id='1853'> +1.1416438e+02 </wgt>
<wgt id='1854'> +1.1310058e+02 </wgt>
<wgt id='1855'> +1.1349453e+02 </wgt>
<wgt id='1856'> +1.1411865e+02 </wgt>
<wgt id='1857'> +1.1444754e+02 </wgt>
<wgt id='1858'> +1.1341193e+02 </wgt>
<wgt id='1859'> +1.1377763e+02 </wgt>
<wgt id='1860'> +1.1460420e+02 </wgt>
<wgt id='1861'> +1.1342243e+02 </wgt>
<wgt id='1862'> +1.1389059e+02 </wgt>
<wgt id='1863'> +1.1357261e+02 </wgt>
<wgt id='1864'> +1.1355678e+02 </wgt>
<wgt id='1865'> +1.1379005e+02 </wgt>
<wgt id='1866'> +1.1445992e+02 </wgt>
<wgt id='1867'> +1.1401259e+02 </wgt>
<wgt id='1868'> +1.1399327e+02 </wgt>
<wgt id='1869'> +1.1395625e+02 </wgt>
<wgt id='1870'> +1.1436985e+02 </wgt>
<wgt id='1871'> +1.1396720e+02 </wgt>
<wgt id='1872'> +1.1427542e+02 </wgt>
<wgt id='1873'> +1.1422938e+02 </wgt>
<wgt id='1874'> +1.1419938e+02 </wgt>
<wgt id='1875'> +1.1436347e+02 </wgt>
<wgt id='1876'> +1.1421096e+02 </wgt>
<wgt id='1877'> +1.1384712e+02 </wgt>
<wgt id='1878'> +1.1334868e+02 </wgt>
<wgt id='1879'> +1.1437613e+02 </wgt>
<wgt id='1880'> +1.1416064e+02 </wgt>
<wgt id='1881'> +1.1448402e+02 </wgt>
<wgt id='1882'> +1.1338343e+02 </wgt>
<wgt id='1883'> +1.1391581e+02 </wgt>
<wgt id='1884'> +1.1419657e+02 </wgt>
<wgt id='1885'> +1.1317131e+02 </wgt>
<wgt id='1886'> +1.1512200e+02 </wgt>
<wgt id='1887'> +1.1350318e+02 </wgt>
<wgt id='1888'> +1.1432083e+02 </wgt>
<wgt id='1889'> +1.1493779e+02 </wgt>
<wgt id='1890'> +1.1385394e+02 </wgt>
<wgt id='1891'> +1.1430665e+02 </wgt>
<wgt id='1892'> +1.1426238e+02 </wgt>
<wgt id='1893'> +1.1467374e+02 </wgt>
<wgt id='1894'> +1.1399159e+02 </wgt>
<wgt id='1895'> +1.1373538e+02 </wgt>
<wgt id='1896'> +1.1381945e+02 </wgt>
<wgt id='1897'> +1.1370684e+02 </wgt>
<wgt id='1898'> +1.1362865e+02 </wgt>
<wgt id='1899'> +1.1362852e+02 </wgt>
<wgt id='1900'> +1.1424640e+02 </wgt>
<wgt id='1901'> +1.1468389e+02 </wgt>
<wgt id='1902'> +1.1389554e+02 </wgt>
<wgt id='1903'> +1.1434668e+02 </wgt>
<wgt id='1904'> +1.1318008e+02 </wgt>
<wgt id='1905'> +1.1376281e+02 </wgt>
<wgt id='1906'> +1.1395025e+02 </wgt>
<wgt id='1907'> +1.1381958e+02 </wgt>
<wgt id='1908'> +1.1378705e+02 </wgt>
<wgt id='1909'> +1.1388589e+02 </wgt>
<wgt id='1910'> +1.1383932e+02 </wgt>
<wgt id='1911'> +1.1406892e+02 </wgt>
<wgt id='1912'> +1.1382264e+02 </wgt>
<wgt id='1913'> +1.1390268e+02 </wgt>
<wgt id='1914'> +1.1396934e+02 </wgt>
<wgt id='1915'> +1.1367951e+02 </wgt>
<wgt id='1916'> +1.1394179e+02 </wgt>
<wgt id='1917'> +1.1418836e+02 </wgt>
<wgt id='1918'> +1.1392544e+02 </wgt>
<wgt id='1919'> +1.1373204e+02 </wgt>
<wgt id='1920'> +1.1390376e+02 </wgt>
<wgt id='1921'> +1.1397494e+02 </wgt>
<wgt id='1922'> +1.0971213e+02 </wgt>
<wgt id='1923'> +1.1839662e+02 </wgt>
<wgt id='1924'> +1.1584905e+02 </wgt>
<wgt id='1925'> +1.1849559e+02 </wgt>
<wgt id='1926'> +1.1443083e+02 </wgt>
<wgt id='1927'> +1.1583224e+02 </wgt>
<wgt id='1928'> +1.1699519e+02 </wgt>
<wgt id='1929'> +1.1512697e+02 </wgt>
<wgt id='1930'> +1.1753564e+02 </wgt>
<wgt id='1931'> +1.1579427e+02 </wgt>
<wgt id='1932'> +1.1566830e+02 </wgt>
<wgt id='1933'> +1.1600612e+02 </wgt>
<wgt id='1934'> +1.1598302e+02 </wgt>
<wgt id='1935'> +1.1573280e+02 </wgt>
<wgt id='1936'> +1.1541812e+02 </wgt>
<wgt id='1937'> +1.1550721e+02 </wgt>
<wgt id='1938'> +1.1543153e+02 </wgt>
<wgt id='1939'> +1.1513379e+02 </wgt>
<wgt id='1940'> +1.1629478e+02 </wgt>
<wgt id='1941'> +1.1579609e+02 </wgt>
<wgt id='1942'> +1.1535105e+02 </wgt>
<wgt id='1943'> +1.1558083e+02 </wgt>
<wgt id='1944'> +1.1655598e+02 </wgt>
<wgt id='1945'> +1.1588908e+02 </wgt>
<wgt id='1946'> +1.1591205e+02 </wgt>
<wgt id='1947'> +1.1606783e+02 </wgt>
<wgt id='1948'> +1.1674252e+02 </wgt>
<wgt id='1949'> +1.1558572e+02 </wgt>
<wgt id='1950'> +1.1607504e+02 </wgt>
<wgt id='1951'> +1.1400691e+02 </wgt>
<wgt id='1952'> +1.1574074e+02 </wgt>
<wgt id='1953'> +1.1597345e+02 </wgt>
<wgt id='1954'> +1.1585593e+02 </wgt>
<wgt id='1955'> +1.1116686e+02 </wgt>
<wgt id='1956'> +1.2023617e+02 </wgt>
<wgt id='1957'> +1.1401077e+02 </wgt>
<wgt id='1958'> +1.1540718e+02 </wgt>
<wgt id='1959'> +1.1572944e+02 </wgt>
<wgt id='1960'> +1.1393046e+02 </wgt>
<wgt id='1961'> +1.1366475e+02 </wgt>
<wgt id='1962'> +1.1440766e+02 </wgt>
<wgt id='1963'> +1.1407734e+02 </wgt>
<wgt id='1964'> +1.1381569e+02 </wgt>
<wgt id='1965'> +1.1484480e+02 </wgt>
<wgt id='1966'> +1.1203843e+02 </wgt>
<wgt id='1967'> +1.1375925e+02 </wgt>
<wgt id='1968'> +1.1538875e+02 </wgt>
<wgt id='1969'> +1.1354060e+02 </wgt>
<wgt id='1970'> +1.1414222e+02 </wgt>
<wgt id='1971'> +1.1408161e+02 </wgt>
<wgt id='1972'> +1.1600630e+02 </wgt>
<wgt id='1973'> +1.1422912e+02 </wgt>
<wgt id='1974'> +1.1293961e+02 </wgt>
<wgt id='1975'> +1.1415679e+02 </wgt>
<wgt id='1976'> +1.1424989e+02 </wgt>
<wgt id='1977'> +1.1326923e+02 </wgt>
<wgt id='1978'> +1.1364479e+02 </wgt>
<wgt id='1979'> +1.1372754e+02 </wgt>
<wgt id='1980'> +1.1399947e+02 </wgt>
<wgt id='1981'> +1.1362490e+02 </wgt>
<wgt id='1982'> +1.1404137e+02 </wgt>
<wgt id='1983'> +1.1199339e+02 </wgt>
<wgt id='1984'> +1.1421987e+02 </wgt>
<wgt id='1985'> +1.1343295e+02 </wgt>
<wgt id='1986'> +1.1429159e+02 </wgt>
<wgt id='1987'> +1.1381528e+02 </wgt>
<wgt id='1988'> +1.0971213e+02 </wgt>
<wgt id='1989'> +1.1839662e+02 </wgt>
<wgt id='1990'> +1.5289270e+02 </wgt>
<wgt id='1991'> +1.5338589e+02 </wgt>
<wgt id='1992'> +1.5240128e+02 </wgt>
<wgt id='1993'> +1.5205642e+02 </wgt>
<wgt id='1994'> +1.5372999e+02 </wgt>
<wgt id='1995'> +1.5296123e+02 </wgt>
<wgt id='1996'> +1.5282293e+02 </wgt>
<wgt id='1997'> +1.5124911e+02 </wgt>
<wgt id='1998'> +1.5451531e+02 </wgt>
<wgt id='1999'> +1.5421506e+02 </wgt>
<wgt id='2000'> +1.5156961e+02 </wgt>
<wgt id='2001'> +1.5379784e+02 </wgt>
<wgt id='2002'> +1.5201469e+02 </wgt>
<wgt id='2003'> +1.5316546e+02 </wgt>
<wgt id='2004'> +1.5260771e+02 </wgt>
<wgt id='2005'> +1.5285266e+02 </wgt>
<wgt id='2006'> +1.5287649e+02 </wgt>
<wgt id='2007'> +1.5411480e+02 </wgt>
<wgt id='2008'> +1.5172567e+02 </wgt>
<wgt id='2009'> +1.5256160e+02 </wgt>
<wgt id='2010'> +1.5320870e+02 </wgt>
<wgt id='2011'> +1.5867432e+02 </wgt>
<wgt id='2012'> +1.4744406e+02 </wgt>
<wgt id='2013'> +1.5345376e+02 </wgt>
<wgt id='2014'> +1.5228868e+02 </wgt>
<wgt id='2015'> +1.4914546e+02 </wgt>
<wgt id='2016'> +1.5678859e+02 </wgt>
<wgt id='2017'> +1.5033969e+02 </wgt>
<wgt id='2018'> +1.5338934e+02 </wgt>
<wgt id='2019'> +1.5289270e+02 </wgt>
<wgt id='2020'> +1.5251542e+02 </wgt>
<wgt id='2021'> +1.5363743e+02 </wgt>
<wgt id='2022'> +1.5243451e+02 </wgt>
<wgt id='2023'> +1.5340512e+02 </wgt>
<wgt id='2024'> +1.5196309e+02 </wgt>
<wgt id='2025'> +1.5200000e+02 </wgt>
<wgt id='2026'> +1.5264148e+02 </wgt>
<wgt id='2027'> +1.5325409e+02 </wgt>
<wgt id='2028'> +1.5151267e+02 </wgt>
<wgt id='2029'> +1.5439510e+02 </wgt>
<wgt id='2030'> +1.5336146e+02 </wgt>
<wgt id='2031'> +1.5396747e+02 </wgt>
<wgt id='2032'> +1.4551845e+02 </wgt>
<wgt id='2033'> +1.3191846e+02 </wgt>
<wgt id='2034'> +1.3214678e+02 </wgt>
<wgt id='2035'> +1.3168854e+02 </wgt>
<wgt id='2036'> +1.3139167e+02 </wgt>
<wgt id='2037'> +1.3244384e+02 </wgt>
<wgt id='2038'> +1.3178262e+02 </wgt>
<wgt id='2039'> +1.3205088e+02 </wgt>
<wgt id='2040'> +1.3030381e+02 </wgt>
<wgt id='2041'> +1.3351817e+02 </wgt>
<wgt id='2042'> +1.3269459e+02 </wgt>
<wgt id='2043'> +1.3114157e+02 </wgt>
<wgt id='2044'> +1.3205505e+02 </wgt>
<wgt id='2045'> +1.3178254e+02 </wgt>
<wgt id='2046'> +1.3152292e+02 </wgt>
<wgt id='2047'> +1.3230545e+02 </wgt>
<wgt id='2048'> +1.3184273e+02 </wgt>
<wgt id='2049'> +1.3187287e+02 </wgt>
<wgt id='2050'> +1.3030741e+02 </wgt>
<wgt id='2051'> +1.3355772e+02 </wgt>
<wgt id='2052'> +1.3393631e+02 </wgt>
<wgt id='2053'> +1.2994987e+02 </wgt>
<wgt id='2054'> +1.2740490e+02 </wgt>
<wgt id='2055'> +1.3678535e+02 </wgt>
<wgt id='2056'> +1.2748189e+02 </wgt>
<wgt id='2057'> +1.3663390e+02 </wgt>
<wgt id='2058'> +1.3127308e+02 </wgt>
<wgt id='2059'> +1.3196053e+02 </wgt>
<wgt id='2060'> +1.3069282e+02 </wgt>
<wgt id='2061'> +1.3036571e+02 </wgt>
<wgt id='2062'> +1.3173089e+02 </wgt>
<wgt id='2063'> +1.3051592e+02 </wgt>
<wgt id='2064'> +1.3473418e+02 </wgt>
<wgt id='2065'> +1.3051645e+02 </wgt>
<wgt id='2066'> +1.3308986e+02 </wgt>
<wgt id='2067'> +1.2153191e+02 </wgt>
<wgt id='2068'> +1.3796328e+02 </wgt>
<wgt id='2069'> +1.3146808e+02 </wgt>
<wgt id='2070'> +1.3216171e+02 </wgt>
<wgt id='2071'> +1.3248502e+02 </wgt>
<wgt id='2072'> +1.2664442e+02 </wgt>
<wgt id='2073'> +1.3414597e+02 </wgt>
<wgt id='2074'> +1.3387377e+02 </wgt>
<wgt id='2075'> +1.3919870e+02 </wgt>
<wgt id='2076'> +1.1223891e+02 </wgt>
<wgt id='2077'> +1.1219119e+02 </wgt>
<wgt id='2078'> +1.1214258e+02 </wgt>
<wgt id='2079'> +1.1209411e+02 </wgt>
<wgt id='2080'> +1.1204520e+02 </wgt>
<wgt id='2081'> +1.1199665e+02 </wgt>
<wgt id='2082'> +1.1194819e+02 </wgt>
<wgt id='2083'> +1.1190041e+02 </wgt>
<wgt id='2084'> +1.1185192e+02 </wgt>
<wgt id='2085'> +1.1180430e+02 </wgt>
<wgt id='2086'> +1.1175567e+02 </wgt>
<wgt id='2087'> +1.1170606e+02 </wgt>
<wgt id='2088'> +1.1165840e+02 </wgt>
<wgt id='2089'> +1.1161062e+02 </wgt>
<wgt id='2090'> +1.1156132e+02 </wgt>
<wgt id='2091'> +1.1151372e+02 </wgt>
<wgt id='2092'> +1.1146509e+02 </wgt>
<wgt id='2093'> +1.1141756e+02 </wgt>
<wgt id='2094'> +1.1136899e+02 </wgt>
<wgt id='2095'> +1.1131939e+02 </wgt>
<wgt id='2096'> +1.1127181e+02 </wgt>
<wgt id='2097'> +1.1122417e+02 </wgt>
<wgt id='2098'> +1.1117486e+02 </wgt>
<wgt id='2099'> +1.1112730e+02 </wgt>
<wgt id='2100'> +1.1107962e+02 </wgt>
<wgt id='2101'> +1.1103030e+02 </wgt>
<wgt id='2102'> +1.1098163e+02 </wgt>
<wgt id='2103'> +1.1093398e+02 </wgt>
<wgt id='2104'> +1.1088552e+02 </wgt>
<wgt id='2105'> +1.1083716e+02 </wgt>
<wgt id='2106'> +1.1078955e+02 </wgt>
<wgt id='2107'> +1.1306670e+02 </wgt>
<wgt id='2108'> +1.1367988e+02 </wgt>
<wgt id='2109'> +1.1298730e+02 </wgt>
<wgt id='2110'> +1.1318359e+02 </wgt>
<wgt id='2111'> +1.1384233e+02 </wgt>
<wgt id='2112'> +1.1347837e+02 </wgt>
<wgt id='2113'> +1.1281661e+02 </wgt>
<wgt id='2114'> +1.1297969e+02 </wgt>
<wgt id='2115'> +1.1305918e+02 </wgt>
<wgt id='2116'> +1.1282438e+02 </wgt>
<wgt id='2117'> +1.1292923e+02 </wgt>
<wgt id='2118'> +1.1288870e+02 </wgt>
<wgt id='2119'> +1.1303999e+02 </wgt>
<wgt id='2120'> +1.1304201e+02 </wgt>
<wgt id='2121'> +1.1344032e+02 </wgt>
<wgt id='2122'> +1.1512093e+02 </wgt>
<wgt id='2123'> +1.1220654e+02 </wgt>
<wgt id='2124'> +1.1289237e+02 </wgt>
<wgt id='2125'> +1.1433650e+02 </wgt>
<wgt id='2126'> +1.1158048e+02 </wgt>
<wgt id='2127'> +1.1194806e+02 </wgt>
<wgt id='2128'> +1.1381722e+02 </wgt>
<wgt id='2129'> +1.1166551e+02 </wgt>
<wgt id='2130'> +1.1320079e+02 </wgt>
<wgt id='2131'> +1.1434516e+02 </wgt>
<wgt id='2132'> +1.1339688e+02 </wgt>
<wgt id='2133'> +1.1286317e+02 </wgt>
<wgt id='2134'> +1.1296151e+02 </wgt>
<wgt id='2135'> +1.1252127e+02 </wgt>
<wgt id='2136'> +1.1263854e+02 </wgt>
<wgt id='2137'> +1.1302134e+02 </wgt>
<wgt id='2138'> +1.1200954e+02 </wgt>
<wgt id='2139'> +1.1325198e+02 </wgt>
<wgt id='2140'> +1.1219572e+02 </wgt>
<wgt id='2141'> +1.1258467e+02 </wgt>
<wgt id='2142'> +1.1320897e+02 </wgt>
<wgt id='2143'> +1.1353471e+02 </wgt>
<wgt id='2144'> +1.1250843e+02 </wgt>
<wgt id='2145'> +1.1286911e+02 </wgt>
<wgt id='2146'> +1.1368898e+02 </wgt>
<wgt id='2147'> +1.1251851e+02 </wgt>
<wgt id='2148'> +1.1297478e+02 </wgt>
<wgt id='2149'> +1.1266177e+02 </wgt>
<wgt id='2150'> +1.1265461e+02 </wgt>
<wgt id='2151'> +1.1288196e+02 </wgt>
<wgt id='2152'> +1.1354425e+02 </wgt>
<wgt id='2153'> +1.1310513e+02 </wgt>
<wgt id='2154'> +1.1308044e+02 </wgt>
<wgt id='2155'> +1.1304646e+02 </wgt>
<wgt id='2156'> +1.1345551e+02 </wgt>
<wgt id='2157'> +1.1305906e+02 </wgt>
<wgt id='2158'> +1.1336482e+02 </wgt>
<wgt id='2159'> +1.1331722e+02 </wgt>
<wgt id='2160'> +1.1328881e+02 </wgt>
<wgt id='2161'> +1.1345395e+02 </wgt>
<wgt id='2162'> +1.1330184e+02 </wgt>
<wgt id='2163'> +1.1293789e+02 </wgt>
<wgt id='2164'> +1.1244194e+02 </wgt>
<wgt id='2165'> +1.1347022e+02 </wgt>
<wgt id='2166'> +1.1325032e+02 </wgt>
<wgt id='2167'> +1.1357018e+02 </wgt>
<wgt id='2168'> +1.1247858e+02 </wgt>
<wgt id='2169'> +1.1300560e+02 </wgt>
<wgt id='2170'> +1.1328613e+02 </wgt>
<wgt id='2171'> +1.1226498e+02 </wgt>
<wgt id='2172'> +1.1420739e+02 </wgt>
<wgt id='2173'> +1.1259875e+02 </wgt>
<wgt id='2174'> +1.1340834e+02 </wgt>
<wgt id='2175'> +1.1402128e+02 </wgt>
<wgt id='2176'> +1.1294627e+02 </wgt>
<wgt id='2177'> +1.1339395e+02 </wgt>
<wgt id='2178'> +1.1335008e+02 </wgt>
<wgt id='2179'> +1.1376040e+02 </wgt>
<wgt id='2180'> +1.1307968e+02 </wgt>
<wgt id='2181'> +1.1282552e+02 </wgt>
<wgt id='2182'> +1.1290960e+02 </wgt>
<wgt id='2183'> +1.1279953e+02 </wgt>
<wgt id='2184'> +1.1272129e+02 </wgt>
<wgt id='2185'> +1.1272307e+02 </wgt>
<wgt id='2186'> +1.1333413e+02 </wgt>
<wgt id='2187'> +1.1376773e+02 </wgt>
<wgt id='2188'> +1.1298792e+02 </wgt>
<wgt id='2189'> +1.1343444e+02 </wgt>
<wgt id='2190'> +1.1227561e+02 </wgt>
<wgt id='2191'> +1.1285439e+02 </wgt>
<wgt id='2192'> +1.1304157e+02 </wgt>
<wgt id='2193'> +1.1291518e+02 </wgt>
<wgt id='2194'> +1.1287931e+02 </wgt>
<wgt id='2195'> +1.1297638e+02 </wgt>
<wgt id='2196'> +1.1293082e+02 </wgt>
<wgt id='2197'> +1.1315754e+02 </wgt>
<wgt id='2198'> +1.1291447e+02 </wgt>
<wgt id='2199'> +1.1299200e+02 </wgt>
<wgt id='2200'> +1.1305966e+02 </wgt>
<wgt id='2201'> +1.1277095e+02 </wgt>
<wgt id='2202'> +1.1303245e+02 </wgt>
<wgt id='2203'> +1.1327850e+02 </wgt>
<wgt id='2204'> +1.1301682e+02 </wgt>
<wgt id='2205'> +1.1282298e+02 </wgt>
<wgt id='2206'> +1.1299527e+02 </wgt>
<wgt id='2207'> +1.1306699e+02 </wgt>
<wgt id='2208'> +1.1306660e+02 </wgt>
<wgt id='2209'> +1.1306611e+02 </wgt>
<wgt id='2210'> +1.1306681e+02 </wgt>
<wgt id='2211'> +1.1306683e+02 </wgt>
<wgt id='2212'> +1.1306699e+02 </wgt>
<wgt id='2213'> +1.1306674e+02 </wgt>
<wgt id='2214'> +1.1306624e+02 </wgt>
<wgt id='2215'> +1.1494415e+02 </wgt>
<wgt id='2216'> +1.1091722e+02 </wgt>
<wgt id='2217'> +1.1021189e+02 </wgt>
<wgt id='2218'> +1.1863842e+02 </wgt>
<wgt id='2219'> +1.1740877e+02 </wgt>
<wgt id='2220'> +1.1973125e+02 </wgt>
<wgt id='2221'> +1.1020729e+02 </wgt>
<wgt id='2222'> +1.1588104e+02 </wgt>
<wgt id='2223'> +1.1451408e+02 </wgt>
<wgt id='2224'> +1.1466545e+02 </wgt>
<wgt id='2225'> +1.2079208e+02 </wgt>
<wgt id='2226'> +1.1467733e+02 </wgt>
<wgt id='2227'> +1.1311791e+02 </wgt>
<wgt id='2228'> +1.1581095e+02 </wgt>
<wgt id='2229'> +1.1714816e+02 </wgt>
<wgt id='2230'> +1.1405677e+02 </wgt>
<wgt id='2231'> +1.1354281e+02 </wgt>
<wgt id='2232'> +1.1476935e+02 </wgt>
<wgt id='2233'> +1.1020247e+02 </wgt>
<wgt id='2234'> +1.1211639e+02 </wgt>
<wgt id='2235'> +1.1656934e+02 </wgt>
<wgt id='2236'> +1.1475756e+02 </wgt>
<wgt id='2237'> +1.2009258e+02 </wgt>
<wgt id='2238'> +1.1681814e+02 </wgt>
<wgt id='2239'> +1.2208211e+02 </wgt>
<wgt id='2240'> +1.1544481e+02 </wgt>
<wgt id='2241'> +1.1507385e+02 </wgt>
<wgt id='2242'> +1.1503147e+02 </wgt>
<wgt id='2243'> +1.1481887e+02 </wgt>
<wgt id='2244'> +1.1386416e+02 </wgt>
<wgt id='2245'> +1.1599298e+02 </wgt>
<wgt id='2246'> +1.2158161e+02 </wgt>
<wgt id='2247'> +1.2018570e+02 </wgt>
<wgt id='2248'> +1.1567817e+02 </wgt>
<wgt id='2249'> +1.1670751e+02 </wgt>
<wgt id='2250'> +1.2017353e+02 </wgt>
<wgt id='2251'> +1.1142572e+02 </wgt>
<wgt id='2252'> +1.1503444e+02 </wgt>
<wgt id='2253'> +1.1441589e+02 </wgt>
<wgt id='2254'> +1.1677439e+02 </wgt>
<wgt id='2255'> +1.1370442e+02 </wgt>
<wgt id='2256'> +1.1171674e+02 </wgt>
<wgt id='2257'> +1.1207094e+02 </wgt>
<wgt id='2258'> +1.1847857e+02 </wgt>
<wgt id='2259'> +1.1399631e+02 </wgt>
<wgt id='2260'> +1.1405289e+02 </wgt>
<wgt id='2261'> +1.1185835e+02 </wgt>
<wgt id='2262'> +1.1053246e+02 </wgt>
<wgt id='2263'> +1.1753595e+02 </wgt>
<wgt id='2264'> +1.1666513e+02 </wgt>
<wgt id='2265'> +1.1413342e+02 </wgt>
<wgt id='2266'> +1.1402036e+02 </wgt>
<wgt id='2267'> +1.1464057e+02 </wgt>
<wgt id='2268'> +1.1942897e+02 </wgt>
<wgt id='2269'> +1.1546091e+02 </wgt>
<wgt id='2270'> +1.1816630e+02 </wgt>
<wgt id='2271'> +1.1254009e+02 </wgt>
<wgt id='2272'> +1.1300659e+02 </wgt>
<wgt id='2273'> +1.1070516e+02 </wgt>
<wgt id='2274'> +1.1527672e+02 </wgt>
<wgt id='2275'> +1.1391197e+02 </wgt>
<wgt id='2276'> +1.1288207e+02 </wgt>
<wgt id='2277'> +1.1214336e+02 </wgt>
<wgt id='2278'> +1.1291894e+02 </wgt>
<wgt id='2279'> +1.0853382e+02 </wgt>
<wgt id='2280'> +1.1752831e+02 </wgt>
<wgt id='2281'> +1.1689896e+02 </wgt>
<wgt id='2282'> +1.1795183e+02 </wgt>
<wgt id='2283'> +1.1882889e+02 </wgt>
<wgt id='2284'> +1.2039890e+02 </wgt>
<wgt id='2285'> +1.1631493e+02 </wgt>
<wgt id='2286'> +1.1393224e+02 </wgt>
<wgt id='2287'> +1.1102588e+02 </wgt>
<wgt id='2288'> +1.1538207e+02 </wgt>
<wgt id='2289'> +1.1560320e+02 </wgt>
<wgt id='2290'> +1.1270959e+02 </wgt>
<wgt id='2291'> +1.1481981e+02 </wgt>
<wgt id='2292'> +1.1572736e+02 </wgt>
<wgt id='2293'> +1.1378042e+02 </wgt>
<wgt id='2294'> +1.1237626e+02 </wgt>
<wgt id='2295'> +1.1551399e+02 </wgt>
<wgt id='2296'> +1.1663694e+02 </wgt>
<wgt id='2297'> +1.1765547e+02 </wgt>
<wgt id='2298'> +1.0909697e+02 </wgt>
<wgt id='2299'> +1.1989382e+02 </wgt>
<wgt id='2300'> +1.1353145e+02 </wgt>
<wgt id='2301'> +1.1279284e+02 </wgt>
<wgt id='2302'> +1.1186446e+02 </wgt>
<wgt id='2303'> +1.1280756e+02 </wgt>
<wgt id='2304'> +1.0957429e+02 </wgt>
<wgt id='2305'> +1.1966034e+02 </wgt>
<wgt id='2306'> +1.1361636e+02 </wgt>
<wgt id='2307'> +1.1760151e+02 </wgt>
<wgt id='2308'> +1.1340488e+02 </wgt>
<wgt id='2309'> +1.1213501e+02 </wgt>
<wgt id='2310'> +1.1264041e+02 </wgt>
<wgt id='2311'> +1.1717543e+02 </wgt>
<wgt id='2312'> +1.1614913e+02 </wgt>
<wgt id='2313'> +1.1743375e+02 </wgt>
<wgt id='2314'> +1.0925743e+02 </wgt>
<wgt id='2315'> +1.1307910e+02 </wgt>
<wgt id='2316'> +1.1157393e+02 </wgt>
<wgt id='2317'> +1.1735831e+02 </wgt>
<wgt id='2318'> +1.1225879e+02 </wgt>
<wgt id='2319'> +1.3414573e+02 </wgt>
<wgt id='2320'> +1.7612463e+02 </wgt>
<wgt id='2321'> +1.1323936e+02 </wgt>
<wgt id='2322'> +1.5644912e+02 </wgt>
</rwgt>
</event>
<event>
12      0 +1.1579678e+02 4.13439000e+02 7.81859000e-03 9.61472100e-02
        2 -1    0    0  502    0 +0.0000000000e+00 +0.0000000000e+00 +2.0471313265e+03 2.0471313265e+03 0.0000000000e+00 0.0000e+00 -1.0000e+00
       -2 -1    0    0    0  501 +0.0000000000e+00 +0.0000000000e+00 -8.3908736057e+01 8.3908736057e+01 0.0000000000e+00 0.0000e+00 1.0000e+00
        6  2    1    2  502    0 -3.4881569355e+02 -1.4065337122e+02 +9.0685001329e+02 9.9662022605e+02 1.7152017218e+02 0.0000e+00 0.0000e+00
        5  1    3    3  502    0 -1.4976749665e+02 +9.8809723719e+00 +2.9692397444e+02 3.3270374700e+02 0.0000000000e+00 0.0000e+00 -1.0000e+00
       24  2    3    3    0    0 -1.9904819690e+02 -1.5053434359e+02 +6.0992603885e+02 6.6391647905e+02 8.0588739918e+01 0.0000e+00 0.0000e+00
      -11  1    5    5    0    0 -1.2501908498e+01 -1.1094880119e+01 +8.0547057471e+00 1.8554578023e+01 0.0000000000e+00 0.0000e+00 1.0000e+00
       12  1    5    5    0    0 -1.8654628840e+02 -1.3943946347e+02 +6.0187133310e+02 6.4536190103e+02 0.0000000000e+00 0.0000e+00 -1.0000e+00
       -6  2    1    2    0  501 +3.4881569355e+02 +1.4065337122e+02 +1.0563725772e+03 1.1344198365e+03 1.7184174348e+02 0.0000e+00 0.0000e+00
       -5  1    8    8    0  501 +2.6671839568e+02 +6.5097833712e+01 +7.5000260380e+02 7.9867411142e+02 0.0000000000e+00 0.0000e+00 1.0000e+00
      -24  2    8    8    0    0 +8.2097297869e+01 +7.5555537505e+01 +3.0636997336e+02 3.3574572509e+02 8.0087613133e+01 0.0000e+00 0.0000e+00
       11  1   10   10    0    0 -2.5406964787e+00 -1.3795378569e+01 +3.7802780106e+01 4.0321430929e+01 0.0000000000e+00 0.0000e+00 -1.0000e+00
      -12  1   10   10    0    0 +8.4637994348e+01 +8.9350916074e+01 +2.6856719325e+02 2.9542429416e+02 0.0000000000e+00 0.0000e+00 1.0000e+00
<scales pt_clust_1="13000.0" pt_clust_2="13000.0" pt_clust_3="13000.0" pt_clust_4="13000.0" pt_clust_5="13000.0" pt_clust_6="13000.0"></scales>
<mgrwt>
<rscale>  2 0.41343899e+03</rscale>
<asrwt>0</asrwt>
<pdfrwt beam="1">  1        2 0.31494324e+00 0.41343899e+03</pdfrwt>
<pdfrwt beam="2">  1       -2 0.12909038e-01 0.41343899e+03</pdfrwt>
<totfact> 0.32465498e+00</totfact>
</mgrwt>
<clustering>
<clus scale="  773.188">  3  4 -1 -1</clus>
<clus scale="  413.439">  1  3  2 -1</clus>
</clustering>
<rwgt>
<wgt id='reference_point'> +1.1579678e+02 </wgt>
<wgt id='eftrwgt0_ctg_-0.754_cqq83_2.978_cqq81_11.175_cqu8_-0.722_cqd8_-22.551_ctq8_11.076_ctu8_-15.131_ctd8_20.128_cqq13_0.321_cqq11_-6.675_cqu1_-3.516_cqd1_6.151_ctq1_5.402_ctu1_-8.742_ctd1_5.367'> +7.6072825e+01 </wgt>
<wgt id='eftrwgt1_ctg_-1.195_cqq83_-15.761_cqq81_-4.235_cqu8_-15.499_cqd8_-10.228_ctq8_-0.966_ctu8_-17.272_ctd8_-16.58_cqq13_-4.893_cqq11_4.278_cqu1_-0.839_cqd1_-4.333_ctq1_2.613_ctu1_-1.417_ctd1_-2.816'> +5.9843681e+01 </wgt>
<wgt id='eftrwgt2_ctg_-1.383_cqq83_5.883_cqq81_-5.515_cqu8_2.394_cqd8_-9.03_ctq8_-0.054_ctu8_-11.517_ctd8_-10.825_cqq13_-0.011_cqq11_4.192_cqu1_6.747_cqd1_8.549_ctq1_7.513_ctu1_-7.841_ctd1_7.605'> +1.6847733e+01 </wgt>
<wgt id='eftrwgt3_ctg_0.83_cqq83_7.564_cqq81_-4.758_cqu8_11.03_cqd8_2.018_ctq8_13.609_ctu8_6.693_ctd8_12.801_cqq13_1.059_cqq11_-4.128_cqu1_0.962_cqd1_4.274_ctq1_8.055_ctu1_-10.409_ctd1_-1.438'> +1.0933053e+01 </wgt>
<wgt id='eftrwgt4_ctg_0.635_cqq83_-11.713_cqq81_0.383_cqu8_10.984_cqd8_-20.924_ctq8_-2.091_ctu8_5.555_ctd8_1.514_cqq13_3.429_cqq11_-0.162_cqu1_-10.649_cqd1_5.475_ctq1_5.872_ctu1_-1.687_ctd1_-8.071'> +2.5515992e+01 </wgt>
<wgt id='eftrwgt5_ctg_0.29_cqq83_4.054_cqq81_-1.527_cqu8_-4.305_cqd8_-20.381_ctq8_12.02_ctu8_-17.198_ctd8_4.416_cqq13_-0.765_cqq11_-1.818_cqu1_-0.276_cqd1_12.045_ctq1_-6.626_ctu1_4.803_ctd1_5.994'> +1.0994272e+01 </wgt>
<wgt id='eftrwgt6_ctg_0.363_cqq83_-5.38_cqq81_10.485_cqu8_-11.932_cqd8_-4.948_ctq8_9.185_ctu8_-12.064_ctd8_17.315_cqq13_-0.222_cqq11_-6.441_cqu1_-7.804_cqd1_-9.036_ctq1_-7.458_ctu1_9.293_ctd1_3.977'> +4.8521573e+01 </wgt>
<wgt id='eftrwgt7_ctg_-1.197_cqq83_-4.451_cqq81_7.597_cqu8_-7.443_cqd8_22.122_ctq8_3.031_ctu8_-12.259_ctd8_16.154_cqq13_-6.717_cqq11_-0.945_cqu1_5.096_cqd1_2.249_ctq1_-0.68_ctu1_-7.751_ctd1_8.44'> +5.0760037e+01 </wgt>
<wgt id='eftrwgt8_ctg_0.542_cqq83_-14.102_cqq81_-2.643_cqu8_18.837_cqd8_-13.941_ctq8_-13.421_ctu8_13.125_ctd8_-6.068_cqq13_-0.748_cqq11_-1.138_cqu1_3.707_cqd1_-4.4_ctq1_2.065_ctu1_5.13_ctd1_4.025'> +4.4125929e+01 </wgt>
<wgt id='eftrwgt9_ctg_1.074_cqq83_4.736_cqq81_-13.002_cqu8_-15.389_cqd8_0.91_ctq8_-9.328_ctu8_7.624_ctd8_-22.019_cqq13_3.75_cqq11_-2.977_cqu1_-3.02_cqd1_-13.923_ctq1_-7.186_ctu1_2.633_ctd1_-7.896'> +7.8369687e+00 </wgt>
<wgt id='eftrwgt10_ctg_1.238_cqq83_-17.533_cqq81_12.633_cqu8_3.116_cqd8_9.117_ctq8_-4.456_ctu8_0.149_ctd8_15.76_cqq13_-4.569_cqq11_4.155_cqu1_6.051_cqd1_-8.105_ctq1_0.824_ctu1_0.75_ctd1_6.587'> +1.6809634e+00 </wgt>
<wgt id='eftrwgt11_ctg_-1.233_cqq83_-17.319_cqq81_-5.312_cqu8_16.53_cqd8_-9.607_ctq8_-3.402_ctu8_-16.447_ctd8_-22.15_cqq13_-0.265_cqq11_4.394_cqu1_-0.387_cqd1_0.421_ctq1_2.017_ctu1_-6.772_ctd1_6.873'> +9.2868861e+01 </wgt>
<wgt id='eftrwgt12_ctg_0.408_cqq83_-9.97_cqq81_3.05_cqu8_8.428_cqd8_-10.45_ctq8_-4.549_ctu8_7.41_ctd8_-18.252_cqq13_4.276_cqq11_0.305_cqu1_-4.657_cqd1_-5.86_ctq1_4.293_ctu1_-6.686_ctd1_-6.47'> +2.2766484e+01 </wgt>
<wgt id='eftrwgt13_ctg_1.091_cqq83_16.651_cqq81_9.034_cqu8_-17.068_cqd8_-16.41_ctq8_5.505_ctu8_-6.023_ctd8_-19.606_cqq13_-1.427_cqq11_2.94_cqu1_-7.645_cqd1_-9.373_ctq1_-6.218_ctu1_1.987_ctd1_-10.94'> +1.3864137e+02 </wgt>
<wgt id='eftrwgt14_ctg_-0.901_cqq83_-3.298_cqq81_-0.028_cqu8_-17.181_cqd8_-17.858_ctq8_-13.488_ctu8_-10.256_ctd8_-0.921_cqq13_4.443_cqq11_-0.633_cqu1_-9.228_cqd1_11.328_ctq1_-0.213_ctu1_-0.551_ctd1_-5.789'> +1.2314362e+01 </wgt>
<wgt id='eftrwgt15_ctg_1.026_cqq83_10.852_cqq81_-7.218_cqu8_6.384_cqd8_16.276_ctq8_-4.737_ctu8_-13.404_ctd8_1.733_cqq13_7.315_cqq11_-8.101_cqu1_-2.738_cqd1_7.548_ctq1_8.479_ctu1_-6.738_ctd1_-5.539'> +5.3661628e+00 </wgt>
<wgt id='eftrwgt16_ctg_-0.132_cqq83_-16.656_cqq81_4.305_cqu8_-12.062_cqd8_4.31_ctq8_13.615_ctu8_3.27_ctd8_11.552_cqq13_-1.799_cqq11_7.423_cqu1_6.843_cqd1_13.535_ctq1_0.146_ctu1_7.054_ctd1_9.686'> +4.2084520e+01 </wgt>
<wgt id='eftrwgt17_ctg_0.712_cqq83_-6.61_cqq81_-4.301_cqu8_-1.403_cqd8_6.303_ctq8_-4.86_ctu8_3.128_ctd8_-14.844_cqq13_0.039_cqq11_-4.957_cqu1_2.629_cqd1_-12.532_ctq1_4.939_ctu1_-4.209_ctd1_-3.655'> +3.1894650e+01 </wgt>
<wgt id='eftrwgt18_ctg_-1.35_cqq83_-11.68_cqq81_4.439_cqu8_13.372_cqd8_-0.653_ctq8_5.688_ctu8_0.67_ctd8_-7.709_cqq13_-5.475_cqq11_-5.399_cqu1_3.601_cqd1_-8.439_ctq1_1.117_ctu1_-0.006_ctd1_13.614'> +9.7350550e+01 </wgt>
<wgt id='eftrwgt19_ctg_0.098_cqq83_15.517_cqq81_-5.712_cqu8_-4.013_cqd8_-7.836_ctq8_-1.046_ctu8_-12.063_ctd8_6.039_cqq13_-3.557_cqq11_7.181_cqu1_6.996_cqd1_-3.116_ctq1_1.869_ctu1_1.545_ctd1_-10.959'> +3.4475789e+01 </wgt>
<wgt id='eftrwgt20_ctg_0.401_cqq83_8.943_cqq81_9.36_cqu8_14.22_cqd8_-14.886_ctq8_8.313_ctu8_5.302_ctd8_-10.568_cqq13_-2.406_cqq11_5.185_cqu1_-6.752_cqd1_-3.344_ctq1_-0.322_ctu1_-1.749_ctd1_2.241'> +8.0473814e+01 </wgt>
<wgt id='eftrwgt21_ctg_0.263_cqq83_-7.003_cqq81_9.705_cqu8_13.582_cqd8_19.058_ctq8_12.946_ctu8_6.424_ctd8_17.248_cqq13_-4.887_cqq11_-3.405_cqu1_10.633_cqd1_-6.948_ctq1_5.694_ctu1_-6.922_ctd1_1.277'> +5.5425672e+01 </wgt>
<wgt id='eftrwgt22_ctg_0.627_cqq83_-17.281_cqq81_-4.961_cqu8_16.938_cqd8_22.735_ctq8_-1.208_ctu8_-3.511_ctd8_-5.122_cqq13_5.387_cqq11_-4.565_cqu1_7.804_cqd1_11.098_ctq1_-1.5_ctu1_8.736_ctd1_13.194'> +7.2681134e+01 </wgt>
<wgt id='eftrwgt23_ctg_-0.648_cqq83_15.811_cqq81_12.009_cqu8_-18.949_cqd8_0.783_ctq8_-3.059_ctu8_-17.702_ctd8_-6.711_cqq13_-4.356_cqq11_3.652_cqu1_-8.368_cqd1_-4.016_ctq1_2.411_ctu1_3.109_ctd1_4.001'> +1.5123906e+02 </wgt>
<wgt id='eftrwgt24_ctg_0.279_cqq83_3.419_cqq81_-12.348_cqu8_-3.685_cqd8_-7.428_ctq8_10.986_ctu8_-5.15_ctd8_-17.732_cqq13_-2.497_cqq11_-5.647_cqu1_0.002_cqd1_-4.035_ctq1_-3.93_ctu1_-1.854_ctd1_8.352'> +6.2045400e+01 </wgt>
<wgt id='eftrwgt25_ctg_1.257_cqq83_8.7_cqq81_-13.787_cqu8_1.396_cqd8_-4.553_ctq8_0.437_ctu8_6.957_ctd8_15.293_cqq13_7.476_cqq11_-5.974_cqu1_-3.383_cqd1_-2.371_ctq1_-0.219_ctu1_2.622_ctd1_-7.856'> +3.2704377e+00 </wgt>
<wgt id='eftrwgt26_ctg_-1.323_cqq83_-5.612_cqq81_0.616_cqu8_6.632_cqd8_-3.336_ctq8_13.782_ctu8_-3.939_ctd8_-15.742_cqq13_2.848_cqq11_5.501_cqu1_-1.125_cqd1_-13.284_ctq1_-0.806_ctu1_-0.98_ctd1_-3.316'> +5.5746448e+01 </wgt>
<wgt id='eftrwgt27_ctg_-1.062_cqq83_-5.785_cqq81_-3.069_cqu8_7.318_cqd8_-18.47_ctq8_-5.182_ctu8_-7.369_ctd8_-7.449_cqq13_-0.119_cqq11_-7.366_cqu1_-4.956_cqd1_-13.113_ctq1_-1.612_ctu1_-8.864_ctd1_-9.975'> +5.4845375e+01 </wgt>
<wgt id='eftrwgt28_ctg_0.241_cqq83_-10.317_cqq81_-13.275_cqu8_-8.248_cqd8_-17.794_ctq8_-12.823_ctu8_-16.47_ctd8_-4.449_cqq13_-2.362_cqq11_4.11_cqu1_-10.775_cqd1_-8.582_ctq1_2.037_ctu1_-10.4_ctd1_1.059'> +8.9739353e+01 </wgt>
<wgt id='eftrwgt29_ctg_0.186_cqq83_-14.559_cqq81_-7.088_cqu8_-18.724_cqd8_-0.974_ctq8_-0.831_ctu8_6.546_ctd8_-21.38_cqq13_-1.637_cqq11_2.85_cqu1_2.42_cqd1_-0.935_ctq1_-8.07_ctu1_5.575_ctd1_0.549'> +6.9161406e+01 </wgt>
<wgt id='eftrwgt30_ctg_-1.395_cqq83_-10.203_cqq81_12.938_cqu8_3.137_cqd8_11.131_ctq8_9.079_ctu8_-0.374_ctd8_-23.313_cqq13_-4.383_cqq11_-1.0_cqu1_1.541_cqd1_2.342_ctq1_-4.241_ctu1_-4.162_ctd1_-12.306'> +2.8420974e+01 </wgt>
<wgt id='eftrwgt31_ctg_0.115_cqq83_-15.901_cqq81_-6.358_cqu8_-16.907_cqd8_-5.747_ctq8_2.066_ctu8_-12.966_ctd8_-16.328_cqq13_-3.096_cqq11_2.684_cqu1_-8.352_cqd1_-6.211_ctq1_2.511_ctu1_5.799_ctd1_9.554'> +7.2125138e+01 </wgt>
<wgt id='eftrwgt32_ctg_1.117_cqq83_2.704_cqq81_7.787_cqu8_-16.533_cqd8_8.904_ctq8_10.253_ctu8_2.612_ctd8_4.645_cqq13_-5.493_cqq11_2.812_cqu1_-7.509_cqd1_-3.19_ctq1_-6.22_ctu1_5.276_ctd1_5.86'> +3.6854466e+01 </wgt>
<wgt id='eftrwgt33_ctg_0.209_cqq83_-8.091_cqq81_-11.607_cqu8_-16.123_cqd8_-8.064_ctq8_-3.29_ctu8_-14.767_ctd8_-13.018_cqq13_-5.739_cqq11_0.542_cqu1_-1.411_cqd1_-8.179_ctq1_-5.997_ctu1_-7.343_ctd1_12.169'> +8.0140551e+01 </wgt>
<wgt id='eftrwgt34_ctg_-1.122_cqq83_6.387_cqq81_-1.268_cqu8_-5.867_cqd8_-9.336_ctq8_-2.052_ctu8_-17.13_ctd8_21.742_cqq13_0.581_cqq11_5.886_cqu1_-10.133_cqd1_-11.29_ctq1_-6.71_ctu1_3.942_ctd1_9.713'> +3.7419744e+01 </wgt>
<wgt id='eftrwgt35_ctg_-1.321_cqq83_10.781_cqq81_5.96_cqu8_-16.967_cqd8_5.511_ctq8_-3.29_ctu8_-3.816_ctd8_-14.387_cqq13_-5.938_cqq11_-2.941_cqu1_-5.98_cqd1_11.576_ctq1_0.788_ctu1_10.277_ctd1_-4.905'> +1.1909314e+02 </wgt>
<wgt id='eftrwgt36_ctg_-0.68_cqq83_-4.656_cqq81_2.64_cqu8_-5.091_cqd8_-6.267_ctq8_12.357_ctu8_4.141_ctd8_8.527_cqq13_4.229_cqq11_-0.357_cqu1_6.729_cqd1_-0.812_ctq1_5.304_ctu1_-6.109_ctd1_-13.243'> +1.3403747e+01 </wgt>
<wgt id='eftrwgt37_ctg_-1.287_cqq83_-9.3_cqq81_-1.066_cqu8_-15.272_cqd8_5.656_ctq8_0.824_ctu8_-7.129_ctd8_-5.439_cqq13_-7.864_cqq11_0.302_cqu1_3.094_cqd1_1.84_ctq1_-4.372_ctu1_-7.563_ctd1_2.217'> +6.0990223e+01 </wgt>
<wgt id='eftrwgt38_ctg_0.789_cqq83_2.618_cqq81_-0.896_cqu8_4.006_cqd8_12.013_ctq8_-9.44_ctu8_-16.781_ctd8_-6.655_cqq13_-5.548_cqq11_2.529_cqu1_7.52_cqd1_-4.256_ctq1_5.745_ctu1_0.798_ctd1_7.829'> +7.8311773e+00 </wgt>
<wgt id='eftrwgt39_ctg_0.721_cqq83_1.632_cqq81_7.373_cqu8_-0.631_cqd8_4.104_ctq8_12.802_ctu8_-10.868_ctd8_-5.968_cqq13_-1.832_cqq11_-3.336_cqu1_-4.17_cqd1_-6.056_ctq1_-3.676_ctu1_5.679_ctd1_-9.027'> +4.6080512e+01 </wgt>
<wgt id='eftrwgt40_ctg_-0.362_cqq83_-1.589_cqq81_6.197_cqu8_-18.27_cqd8_7.832_ctq8_-9.399_ctu8_-6.455_ctd8_10.547_cqq13_-4.378_cqq11_5.514_cqu1_-8.215_cqd1_4.889_ctq1_5.265_ctu1_10.009_ctd1_3.422'> +7.6519750e+00 </wgt>
<wgt id='eftrwgt41_ctg_0.658_cqq83_-10.403_cqq81_3.211_cqu8_-2.337_cqd8_17.509_ctq8_6.996_ctu8_-1.761_ctd8_-2.923_cqq13_7.515_cqq11_-0.097_cqu1_0.074_cqd1_12.92_ctq1_-6.01_ctu1_-8.626_ctd1_2.326'> +4.4208057e+01 </wgt>
<wgt id='eftrwgt42_ctg_0.239_cqq83_-0.972_cqq81_-1.122_cqu8_-17.342_cqd8_-7.199_ctq8_-12.68_ctu8_1.247_ctd8_17.533_cqq13_-6.465_cqq11_-5.436_cqu1_9.489_cqd1_-0.985_ctq1_8.129_ctu1_-5.418_ctd1_5.104'> +1.0451009e+02 </wgt>
<wgt id='eftrwgt43_ctg_-0.649_cqq83_12.017_cqq81_-8.81_cqu8_-11.947_cqd8_-0.617_ctq8_-8.389_ctu8_-11.126_ctd8_-23.747_cqq13_-2.837_cqq11_5.496_cqu1_4.701_cqd1_4.955_ctq1_2.49_ctu1_2.683_ctd1_-7.631'> +9.6273857e+00 </wgt>
<wgt id='eftrwgt44_ctg_0.171_cqq83_12.009_cqq81_1.908_cqu8_4.651_cqd8_-17.53_ctq8_4.385_ctu8_9.354_ctd8_6.605_cqq13_0.349_cqq11_-3.295_cqu1_-5.85_cqd1_-13.524_ctq1_0.629_ctu1_-6.984_ctd1_13.334'> +5.1518380e+01 </wgt>
<wgt id='eftrwgt45_ctg_1.117_cqq83_-1.134_cqq81_0.846_cqu8_-17.819_cqd8_7.834_ctq8_-1.016_ctu8_17.048_ctd8_-16.169_cqq13_3.138_cqq11_-2.054_cqu1_-10.535_cqd1_-6.766_ctq1_2.47_ctu1_6.02_ctd1_11.267'> +1.6740872e+00 </wgt>
<wgt id='eftrwgt46_ctg_0.852_cqq83_-5.375_cqq81_-1.252_cqu8_-6.421_cqd8_17.384_ctq8_4.252_ctu8_6.891_ctd8_10.51_cqq13_-4.608_cqq11_7.589_cqu1_-6.678_cqd1_11.188_ctq1_-3.189_ctu1_-10.063_ctd1_0.955'> +9.6824654e+00 </wgt>
<wgt id='eftrwgt47_ctg_0.672_cqq83_10.633_cqq81_-10.436_cqu8_3.141_cqd8_5.015_ctq8_-11.403_ctu8_-4.418_ctd8_-1.92_cqq13_0.491_cqq11_-8.212_cqu1_-0.701_cqd1_-0.931_ctq1_5.075_ctu1_5.776_ctd1_-9.187'> +4.4526301e+01 </wgt>
<wgt id='eftrwgt48_ctg_0.097_cqq83_-13.235_cqq81_3.083_cqu8_-6.992_cqd8_-21.927_ctq8_-1.972_ctu8_12.828_ctd8_-23.378_cqq13_1.548_cqq11_-7.292_cqu1_-7.809_cqd1_-3.663_ctq1_-0.091_ctu1_3.906_ctd1_0.689'> +3.8311600e+01 </wgt>
<wgt id='eftrwgt49_ctg_1.029_cqq83_-0.471_cqq81_-7.658_cqu8_-14.403_cqd8_16.435_ctq8_-10.202_ctu8_-12.269_ctd8_-13.394_cqq13_-1.09_cqq11_4.914_cqu1_-4.324_cqd1_0.827_ctq1_-4.544_ctu1_-0.962_ctd1_9.864'> +1.7743487e+01 </wgt>
<wgt id='eftrwgt50_ctg_-0.665_cqq83_-14.242_cqq81_-8.115_cqu8_4.63_cqd8_10.452_ctq8_-13.832_ctu8_-13.909_ctd8_-10.071_cqq13_-2.706_cqq11_1.201_cqu1_0.148_cqd1_-0.781_ctq1_-6.102_ctu1_-6.349_ctd1_6.964'> +8.2065799e+01 </wgt>
<wgt id='eftrwgt51_ctg_-0.787_cqq83_-15.261_cqq81_8.809_cqu8_-2.155_cqd8_-17.025_ctq8_-6.971_ctu8_10.751_ctd8_-10.297_cqq13_-0.617_cqq11_7.049_cqu1_-7.986_cqd1_-2.061_ctq1_0.449_ctu1_6.857_ctd1_-13.813'> +3.7369571e+01 </wgt>
<wgt id='eftrwgt52_ctg_0.862_cqq83_17.48_cqq81_4.698_cqu8_8.08_cqd8_9.692_ctq8_3.485_ctu8_11.755_ctd8_-3.559_cqq13_6.645_cqq11_2.713_cqu1_-8.115_cqd1_8.608_ctq1_-6.273_ctu1_7.111_ctd1_5.866'> +1.6860067e+02 </wgt>
<wgt id='eftrwgt53_ctg_-0.903_cqq83_3.892_cqq81_-1.362_cqu8_-12.339_cqd8_-12.919_ctq8_2.258_ctu8_8.165_ctd8_16.95_cqq13_-4.352_cqq11_1.546_cqu1_7.695_cqd1_11.734_ctq1_2.3_ctu1_9.781_ctd1_1.838'> +8.9305065e+00 </wgt>
<wgt id='eftrwgt54_ctg_-0.522_cqq83_-0.949_cqq81_-0.037_cqu8_14.405_cqd8_-4.088_ctq8_-5.643_ctu8_8.684_ctd8_-21.06_cqq13_-6.966_cqq11_-5.093_cqu1_-4.897_cqd1_2.455_ctq1_-3.435_ctu1_3.57_ctd1_-7.932'> +1.1766064e+02 </wgt>
<wgt id='eftrwgt55_ctg_-0.222_cqq83_1.213_cqq81_10.848_cqu8_-14.188_cqd8_-19.129_ctq8_4.966_ctu8_6.833_ctd8_-10.208_cqq13_6.393_cqq11_2.922_cqu1_9.268_cqd1_9.372_ctq1_3.58_ctu1_5.027_ctd1_13.963'> +1.0557565e+02 </wgt>
<wgt id='eftrwgt56_ctg_-0.064_cqq83_-13.896_cqq81_-9.146_cqu8_-12.936_cqd8_6.184_ctq8_-9.142_ctu8_7.671_ctd8_-23.063_cqq13_-5.638_cqq11_0.314_cqu1_3.549_cqd1_13.313_ctq1_7.463_ctu1_-2.827_ctd1_4.274'> +1.0144733e+02 </wgt>
<wgt id='eftrwgt57_ctg_0.55_cqq83_-0.366_cqq81_13.131_cqu8_-11.082_cqd8_-6.326_ctq8_-1.457_ctu8_-10.801_ctd8_-1.042_cqq13_-6.705_cqq11_-3.081_cqu1_2.128_cqd1_13.722_ctq1_-3.878_ctu1_8.438_ctd1_-10.644'> +1.1587309e+02 </wgt>
<wgt id='eftrwgt58_ctg_-0.739_cqq83_-1.927_cqq81_-4.498_cqu8_-7.655_cqd8_-12.724_ctq8_7.311_ctu8_0.6_ctd8_-24.282_cqq13_7.046_cqq11_-1.157_cqu1_2.74_cqd1_1.196_ctq1_0.456_ctu1_10.57_ctd1_6.47'> +3.0894068e+01 </wgt>
<wgt id='eftrwgt59_ctg_-0.809_cqq83_6.461_cqq81_5.164_cqu8_7.348_cqd8_-10.049_ctq8_-9.039_ctu8_11.156_ctd8_17.765_cqq13_2.406_cqq11_-3.454_cqu1_-8.251_cqd1_3.987_ctq1_-2.608_ctu1_-5.906_ctd1_-13.122'> +3.0011601e+01 </wgt>
<wgt id='eftrwgt60_ctg_0.321_cqq83_5.49_cqq81_9.481_cqu8_6.2_cqd8_6.877_ctq8_-2.766_ctu8_2.591_ctd8_5.007_cqq13_4.948_cqq11_-5.846_cqu1_1.836_cqd1_2.37_ctq1_3.758_ctu1_-2.994_ctd1_-9.755'> +4.9513967e+01 </wgt>
<wgt id='eftrwgt61_ctg_0.309_cqq83_13.504_cqq81_0.142_cqu8_15.303_cqd8_-11.281_ctq8_-13.865_ctu8_10.736_ctd8_-18.349_cqq13_0.658_cqq11_-2.407_cqu1_-8.659_cqd1_5.691_ctq1_0.834_ctu1_-7.918_ctd1_8.27'> +4.1133699e+01 </wgt>
<wgt id='eftrwgt62_ctg_-0.755_cqq83_1.09_cqq81_-2.059_cqu8_14.895_cqd8_0.941_ctq8_-0.117_ctu8_-3.607_ctd8_-7.303_cqq13_2.029_cqq11_-6.951_cqu1_-7.372_cqd1_-8.246_ctq1_-0.626_ctu1_-0.403_ctd1_-6.554'> +1.9392304e+01 </wgt>
<wgt id='eftrwgt63_ctg_-1.189_cqq83_3.274_cqq81_5.97_cqu8_-8.688_cqd8_14.017_ctq8_2.273_ctu8_14.433_ctd8_-19.069_cqq13_-4.403_cqq11_3.367_cqu1_-4.681_cqd1_10.796_ctq1_-4.846_ctu1_1.054_ctd1_-13.006'> +2.2169379e+01 </wgt>
<wgt id='eftrwgt64_ctg_0.949_cqq83_12.237_cqq81_-2.266_cqu8_-10.878_cqd8_-7.642_ctq8_-6.632_ctu8_-5.91_ctd8_22.286_cqq13_-6.42_cqq11_-0.839_cqu1_-9.914_cqd1_11.165_ctq1_5.728_ctu1_-2.834_ctd1_-11.273'> +6.2420720e+01 </wgt>
<wgt id='eftrwgt65_ctg_-1.077_cqq83_6.554_cqq81_-5.771_cqu8_-11.958_cqd8_-5.175_ctq8_6.893_ctu8_-15.271_ctd8_-11.605_cqq13_-2.625_cqq11_5.619_cqu1_-3.062_cqd1_8.844_ctq1_8.759_ctu1_7.743_ctd1_-9.404'> +1.0446140e+01 </wgt>
<wgt id='eftrwgt66_ctg_0.739_cqq83_-0.73_cqq81_-3.942_cqu8_0.197_cqd8_-20.568_ctq8_-3.855_ctu8_3.62_ctd8_-1.663_cqq13_1.279_cqq11_-5.868_cqu1_-1.596_cqd1_4.61_ctq1_-0.985_ctu1_5.278_ctd1_1.935'> +1.8342279e+01 </wgt>
<wgt id='eftrwgt67_ctg_-1.144_cqq83_-9.411_cqq81_11.632_cqu8_13.794_cqd8_19.35_ctq8_-9.734_ctu8_17.462_ctd8_-9.013_cqq13_6.095_cqq11_1.653_cqu1_10.71_cqd1_-11.055_ctq1_7.571_ctu1_0.484_ctd1_-1.685'> +5.3720008e+01 </wgt>
<wgt id='eftrwgt68_ctg_0.408_cqq83_3.73_cqq81_-12.673_cqu8_-15.054_cqd8_23.598_ctq8_0.269_ctu8_8.53_ctd8_-19.396_cqq13_1.648_cqq11_6.789_cqu1_-10.541_cqd1_-5.767_ctq1_-2.558_ctu1_-8.764_ctd1_1.857'> +6.3013346e+01 </wgt>
<wgt id='eftrwgt69_ctg_0.663_cqq83_-13.808_cqq81_11.681_cqu8_8.175_cqd8_23.585_ctq8_-6.295_ctu8_5.707_ctd8_-2.004_cqq13_2.652_cqq11_0.351_cqu1_-4.864_cqd1_13.53_ctq1_-5.642_ctu1_0.492_ctd1_8.029'> +5.9227701e+00 </wgt>
<wgt id='eftrwgt70_ctg_-0.454_cqq83_-0.455_cqq81_-2.236_cqu8_8.99_cqd8_14.139_ctq8_-10.102_ctu8_-6.093_ctd8_-2.425_cqq13_3.095_cqq11_-0.462_cqu1_-1.855_cqd1_11.152_ctq1_2.965_ctu1_0.951_ctd1_-6.03'> +6.4160904e+00 </wgt>
<wgt id='eftrwgt71_ctg_-0.477_cqq83_-16.758_cqq81_13.224_cqu8_13.232_cqd8_-5.763_ctq8_9.379_ctu8_-10.048_ctd8_-23.022_cqq13_4.391_cqq11_-6.178_cqu1_-8.099_cqd1_-8.009_ctq1_-1.03_ctu1_-2.674_ctd1_-1.681'> +2.9737813e+00 </wgt>
<wgt id='eftrwgt72_ctg_0.622_cqq83_2.696_cqq81_-10.207_cqu8_5.957_cqd8_7.886_ctq8_4.197_ctu8_8.121_ctd8_-20.035_cqq13_2.851_cqq11_-6.744_cqu1_-10.799_cqd1_2.202_ctq1_-7.508_ctu1_-1.701_ctd1_8.892'> +1.9195030e+01 </wgt>
<wgt id='eftrwgt73_ctg_-0.493_cqq83_10.355_cqq81_1.302_cqu8_-9.783_cqd8_-15.531_ctq8_-10.402_ctu8_5.144_ctd8_6.559_cqq13_5.572_cqq11_-0.688_cqu1_-7.729_cqd1_4.564_ctq1_-4.037_ctu1_3.296_ctd1_-5.207'> +4.6432875e+01 </wgt>
<wgt id='eftrwgt74_ctg_-1.313_cqq83_-14.474_cqq81_-0.652_cqu8_2.59_cqd8_16.401_ctq8_2.461_ctu8_-12.258_ctd8_-5.822_cqq13_6.708_cqq11_-5.017_cqu1_7.523_cqd1_10.388_ctq1_-3.975_ctu1_-5.142_ctd1_-12.623'> +3.3465422e+01 </wgt>
<wgt id='eftrwgt75_ctg_-0.166_cqq83_14.655_cqq81_-13.165_cqu8_13.182_cqd8_17.65_ctq8_8.035_ctu8_-7.41_ctd8_5.594_cqq13_-1.583_cqq11_4.47_cqu1_6.793_cqd1_9.148_ctq1_6.872_ctu1_4.564_ctd1_-3.17'> +1.0497192e+01 </wgt>
<wgt id='eftrwgt76_ctg_0.607_cqq83_-7.784_cqq81_0.889_cqu8_-5.808_cqd8_-18.52_ctq8_-10.702_ctu8_6.093_ctd8_5.795_cqq13_-4.86_cqq11_6.059_cqu1_5.977_cqd1_-3.82_ctq1_-0.432_ctu1_0.091_ctd1_12.704'> +6.2473275e+00 </wgt>
<wgt id='eftrwgt77_ctg_-0.008_cqq83_-13.549_cqq81_-2.371_cqu8_-17.548_cqd8_17.783_ctq8_-12.818_ctu8_-10.851_ctd8_-11.002_cqq13_-7.936_cqq11_-0.409_cqu1_4.737_cqd1_0.464_ctq1_-0.138_ctu1_-4.15_ctd1_2.286'> +9.2671640e+01 </wgt>
<wgt id='eftrwgt78_ctg_0.693_cqq83_-17.302_cqq81_-6.475_cqu8_7.814_cqd8_3.71_ctq8_7.916_ctu8_-4.439_ctd8_21.712_cqq13_-1.558_cqq11_5.054_cqu1_2.274_cqd1_7.748_ctq1_-4.741_ctu1_4.163_ctd1_-9.021'> +8.8594762e+01 </wgt>
<wgt id='eftrwgt79_ctg_-1.245_cqq83_-11.588_cqq81_7.305_cqu8_-18.227_cqd8_-8.677_ctq8_11.343_ctu8_2.055_ctd8_-10.604_cqq13_4.361_cqq11_6.251_cqu1_4.537_cqd1_-0.734_ctq1_3.998_ctu1_-6.261_ctd1_-5.045'> +9.2703745e+01 </wgt>
<wgt id='eftrwgt80_ctg_-0.18_cqq83_-10.265_cqq81_2.0_cqu8_-7.281_cqd8_10.418_ctq8_-8.392_ctu8_-11.821_ctd8_14.446_cqq13_4.32_cqq11_-7.909_cqu1_-1.266_cqd1_-1.485_ctq1_7.422_ctu1_-9.567_ctd1_-7.015'> +1.6484779e+01 </wgt>
<wgt id='eftrwgt81_ctg_0.953_cqq83_-15.744_cqq81_-8.719_cqu8_4.233_cqd8_5.5_ctq8_9.427_ctu8_-3.148_ctd8_13.913_cqq13_7.844_cqq11_-2.685_cqu1_-10.526_cqd1_-11.474_ctq1_1.94_ctu1_-0.862_ctd1_-11.271'> +1.0610788e+02 </wgt>
<wgt id='eftrwgt82_ctg_0.709_cqq83_-3.094_cqq81_5.584_cqu8_5.962_cqd8_-12.068_ctq8_7.256_ctu8_-14.777_ctd8_-14.389_cqq13_-4.278_cqq11_8.12_cqu1_0.179_cqd1_-1.651_ctq1_-8.145_ctu1_2.242_ctd1_-10.245'> +1.3486927e+01 </wgt>
<wgt id='eftrwgt83_ctg_0.687_cqq83_-1.156_cqq81_3.18_cqu8_-3.335_cqd8_-0.404_ctq8_-5.778_ctu8_6.62_ctd8_-17.153_cqq13_-5.912_cqq11_5.654_cqu1_-1.269_cqd1_8.004_ctq1_-1.868_ctu1_0.845_ctd1_4.292'> +2.5466956e+00 </wgt>
<wgt id='eftrwgt84_ctg_-0.183_cqq83_-0.308_cqq81_0.037_cqu8_14.309_cqd8_-5.805_ctq8_9.893_ctu8_-5.881_ctd8_-1.437_cqq13_-2.017_cqq11_-6.656_cqu1_-1.67_cqd1_-5.98_ctq1_-8.794_ctu1_2.683_ctd1_9.412'> +6.5773232e+01 </wgt>
<wgt id='eftrwgt85_ctg_-0.942_cqq83_15.035_cqq81_13.373_cqu8_-5.07_cqd8_16.019_ctq8_-8.366_ctu8_14.649_ctd8_22.16_cqq13_-4.681_cqq11_6.562_cqu1_-1.143_cqd1_-10.901_ctq1_-6.626_ctu1_7.385_ctd1_-3.635'> +1.5569258e+02 </wgt>
<wgt id='eftrwgt86_ctg_-0.142_cqq83_-2.994_cqq81_12.042_cqu8_8.306_cqd8_-8.182_ctq8_-12.155_ctu8_-0.571_ctd8_11.633_cqq13_-5.051_cqq11_1.519_cqu1_-1.733_cqd1_9.994_ctq1_-6.524_ctu1_4.94_ctd1_2.118'> +3.0117202e+01 </wgt>
<wgt id='eftrwgt87_ctg_0.929_cqq83_16.258_cqq81_4.432_cqu8_11.37_cqd8_2.732_ctq8_-0.209_ctu8_11.238_ctd8_0.002_cqq13_-3.184_cqq11_5.425_cqu1_-3.268_cqd1_11.628_ctq1_2.342_ctu1_-8.392_ctd1_13.454'> +9.4739066e+01 </wgt>
<wgt id='eftrwgt88_ctg_0.663_cqq83_-0.312_cqq81_4.634_cqu8_13.091_cqd8_20.152_ctq8_-11.08_ctu8_10.132_ctd8_8.016_cqq13_2.666_cqq11_-0.154_cqu1_10.589_cqd1_-1.792_ctq1_-0.235_ctu1_-1.608_ctd1_11.236'> +1.0778519e+01 </wgt>
<wgt id='eftrwgt89_ctg_-0.7_cqq83_-8.489_cqq81_-4.248_cqu8_-16.694_cqd8_11.319_ctq8_10.136_ctu8_16.621_ctd8_-12.449_cqq13_5.869_cqq11_0.2_cqu1_7.255_cqd1_6.776_ctq1_-7.91_ctu1_7.893_ctd1_-13.519'> +4.5062439e+01 </wgt>
<wgt id='eftrwgt90_ctg_1.035_cqq83_-14.726_cqq81_-10.269_cqu8_8.762_cqd8_-16.804_ctq8_-12.281_ctu8_-9.071_ctd8_-18.776_cqq13_-0.931_cqq11_-5.226_cqu1_2.228_cqd1_0.749_ctq1_4.043_ctu1_-9.625_ctd1_12.055'> +1.2470624e+02 </wgt>
<wgt id='eftrwgt91_ctg_0.582_cqq83_7.693_cqq81_-11.295_cqu8_-2.266_cqd8_14.634_ctq8_4.883_ctu8_17.79_ctd8_11.844_cqq13_-6.479_cqq11_-4.102_cqu1_2.603_cqd1_-3.346_ctq1_-0.515_ctu1_-6.838_ctd1_-11.52'> +8.8904202e+01 </wgt>
<wgt id='eftrwgt92_ctg_-1.029_cqq83_4.889_cqq81_-11.405_cqu8_13.309_cqd8_-14.979_ctq8_-5.195_ctu8_6.668_ctd8_-24.798_cqq13_5.441_cqq11_-0.506_cqu1_-0.753_cqd1_-13.543_ctq1_-8.67_ctu1_-7.915_ctd1_-0.334'> +2.0745939e+01 </wgt>
<wgt id='eftrwgt93_ctg_1.323_cqq83_-4.365_cqq81_-4.298_cqu8_7.237_cqd8_-13.74_ctq8_-0.526_ctu8_-16.032_ctd8_-23.867_cqq13_-2.711_cqq11_8.204_cqu1_-9.783_cqd1_-13.301_ctq1_5.357_ctu1_-4.585_ctd1_3.272'> +3.3525026e+01 </wgt>
<wgt id='eftrwgt94_ctg_0.923_cqq83_-5.687_cqq81_-9.274_cqu8_-6.946_cqd8_-18.634_ctq8_-2.87_ctu8_-10.48_ctd8_20.825_cqq13_0.818_cqq11_7.594_cqu1_-2.651_cqd1_-8.209_ctq1_-4.375_ctu1_-0.453_ctd1_-11.307'> +8.2800012e+01 </wgt>
<wgt id='eftrwgt95_ctg_-0.353_cqq83_16.887_cqq81_4.599_cqu8_5.271_cqd8_15.7_ctq8_9.777_ctu8_16.081_ctd8_11.396_cqq13_-1.084_cqq11_-4.79_cqu1_-0.778_cqd1_12.085_ctq1_-5.567_ctu1_-7.961_ctd1_2.198'> +1.2807166e+02 </wgt>
<wgt id='eftrwgt96_ctg_0.041_cqq83_-5.923_cqq81_-2.955_cqu8_4.903_cqd8_20.523_ctq8_-10.841_ctu8_-16.659_ctd8_-20.437_cqq13_-0.715_cqq11_3.365_cqu1_7.617_cqd1_-8.653_ctq1_-1.465_ctu1_-1.263_ctd1_-7.434'> +1.5195711e+01 </wgt>
<wgt id='eftrwgt97_ctg_0.464_cqq83_6.456_cqq81_3.991_cqu8_-17.621_cqd8_21.05_ctq8_-3.045_ctu8_-1.74_ctd8_-0.321_cqq13_-0.503_cqq11_-7.685_cqu1_3.634_cqd1_-8.072_ctq1_-8.465_ctu1_4.741_ctd1_-8.716'> +8.4347283e+01 </wgt>
<wgt id='eftrwgt98_ctg_1.109_cqq83_-17.675_cqq81_-12.841_cqu8_-7.769_cqd8_-4.881_ctq8_8.767_ctu8_1.909_ctd8_-17.434_cqq13_5.514_cqq11_4.151_cqu1_-4.537_cqd1_10.377_ctq1_-0.495_ctu1_-9.214_ctd1_-2.18'> +2.1049010e+02 </wgt>
<wgt id='eftrwgt99_ctg_0.407_cqq83_-15.227_cqq81_3.076_cqu8_16.069_cqd8_-14.34_ctq8_-10.144_ctu8_-13.132_ctd8_6.768_cqq13_-2.495_cqq11_-6.097_cqu1_-9.127_cqd1_6.952_ctq1_6.568_ctu1_4.211_ctd1_13.935'> +7.4016461e+01 </wgt>
<wgt id='eftrwgt100_ctg_-0.701_cqq83_-0.048_cqq81_-13.163_cqu8_5.634_cqd8_10.956_ctq8_-0.744_ctu8_7.675_ctd8_11.807_cqq13_5.749_cqq11_-2.151_cqu1_8.431_cqd1_-6.532_ctq1_6.71_ctu1_1.894_ctd1_-1.052'> +3.5460074e+01 </wgt>
<wgt id='eftrwgt101_ctg_-0.35_cqq83_14.955_cqq81_13.247_cqu8_12.366_cqd8_-17.494_ctq8_13.947_ctu8_15.163_ctd8_24.316_cqq13_-3.799_cqq11_-3.202_cqu1_6.22_cqd1_12.06_ctq1_-5.011_ctu1_-3.243_ctd1_-4.236'> +2.0541590e+02 </wgt>
<wgt id='eftrwgt102_ctg_0.556_cqq83_-5.267_cqq81_-10.439_cqu8_2.364_cqd8_0.675_ctq8_-12.861_ctu8_-7.633_ctd8_-19.227_cqq13_7.964_cqq11_-4.314_cqu1_-5.928_cqd1_-4.03_ctq1_5.914_ctu1_5.907_ctd1_11.347'> +4.8209152e+01 </wgt>
<wgt id='eftrwgt103_ctg_0.125_cqq83_-12.646_cqq81_10.46_cqu8_18.952_cqd8_-13.688_ctq8_-9.243_ctu8_-14.143_ctd8_-9.888_cqq13_-8.119_cqq11_3.122_cqu1_8.657_cqd1_7.658_ctq1_-7.962_ctu1_3.664_ctd1_-2.552'> +2.2850963e+01 </wgt>
<wgt id='eftrwgt104_ctg_-0.763_cqq83_-3.804_cqq81_11.607_cqu8_-13.419_cqd8_14.176_ctq8_-9.066_ctu8_-15.02_ctd8_-4.358_cqq13_-1.193_cqq11_-6.481_cqu1_4.998_cqd1_-9.789_ctq1_1.777_ctu1_10.322_ctd1_2.64'> +5.9670371e+01 </wgt>
<wgt id='eftrwgt105_ctg_-1.088_cqq83_12.665_cqq81_-11.087_cqu8_18.548_cqd8_-4.797_ctq8_-2.92_ctu8_2.89_ctd8_13.714_cqq13_6.529_cqq11_2.903_cqu1_9.448_cqd1_-11.012_ctq1_-0.553_ctu1_-10.792_ctd1_7.312'> +7.1275392e+01 </wgt>
<wgt id='eftrwgt106_ctg_-0.66_cqq83_13.87_cqq81_-10.837_cqu8_-12.598_cqd8_7.858_ctq8_-12.118_ctu8_-7.151_ctd8_16.078_cqq13_4.226_cqq11_0.29_cqu1_-10.828_cqd1_12.788_ctq1_7.2_ctu1_2.803_ctd1_-12.185'> +2.1601556e+01 </wgt>
<wgt id='eftrwgt107_ctg_0.987_cqq83_4.124_cqq81_-7.722_cqu8_-17.904_cqd8_-9.465_ctq8_-8.335_ctu8_11.217_ctd8_22.691_cqq13_-5.276_cqq11_2.989_cqu1_7.593_cqd1_-5.045_ctq1_1.607_ctu1_3.552_ctd1_13.817'> +4.5020865e+00 </wgt>
<wgt id='eftrwgt108_ctg_-0.161_cqq83_-2.662_cqq81_-3.151_cqu8_9.405_cqd8_-12.787_ctq8_6.797_ctu8_12.29_ctd8_-20.381_cqq13_6.286_cqq11_-1.665_cqu1_-10.66_cqd1_13.551_ctq1_-0.592_ctu1_-10.77_ctd1_-11.103'> +1.8983577e+01 </wgt>
<wgt id='eftrwgt109_ctg_-0.866_cqq83_17.321_cqq81_-1.402_cqu8_15.303_cqd8_-9.712_ctq8_-2.135_ctu8_4.236_ctd8_-2.625_cqq13_6.154_cqq11_-5.703_cqu1_2.095_cqd1_6.678_ctq1_-8.391_ctu1_-3.925_ctd1_1.624'> +5.3391719e+01 </wgt>
<wgt id='eftrwgt110_ctg_0.155_cqq83_-16.958_cqq81_-11.926_cqu8_-4.429_cqd8_12.271_ctq8_12.349_ctu8_9.754_ctd8_-5.943_cqq13_1.387_cqq11_-2.925_cqu1_8.241_cqd1_-0.988_ctq1_8.274_ctu1_-10.609_ctd1_-7.304'> +1.2317420e+02 </wgt>
<wgt id='eftrwgt111_ctg_-1.065_cqq83_14.73_cqq81_-1.172_cqu8_-15.353_cqd8_0.237_ctq8_10.108_ctu8_4.492_ctd8_24.01_cqq13_-1.328_cqq11_0.667_cqu1_-2.509_cqd1_0.719_ctq1_0.384_ctu1_-8.496_ctd1_-3.168'> +4.3151351e+01 </wgt>
<wgt id='eftrwgt112_ctg_0.963_cqq83_-9.182_cqq81_0.049_cqu8_8.605_cqd8_-14.263_ctq8_8.142_ctu8_-8.43_ctd8_-11.958_cqq13_-2.649_cqq11_1.046_cqu1_6.616_cqd1_7.998_ctq1_1.189_ctu1_-6.255_ctd1_6.95'> +9.7165170e+00 </wgt>
<wgt id='eftrwgt113_ctg_1.026_cqq83_-11.499_cqq81_-5.535_cqu8_17.173_cqd8_3.883_ctq8_-9.651_ctu8_-11.427_ctd8_18.837_cqq13_6.015_cqq11_6.509_cqu1_10.344_cqd1_-2.658_ctq1_-2.985_ctu1_-3.104_ctd1_9.041'> +1.6234345e+02 </wgt>
<wgt id='eftrwgt114_ctg_1.167_cqq83_14.15_cqq81_-2.248_cqu8_-3.57_cqd8_15.163_ctq8_-12.657_ctu8_5.129_ctd8_6.614_cqq13_-6.863_cqq11_-3.391_cqu1_-0.777_cqd1_-2.994_ctq1_1.952_ctu1_-7.447_ctd1_11.847'> +1.1271984e+02 </wgt>
<wgt id='eftrwgt115_ctg_0.982_cqq83_-16.13_cqq81_-2.864_cqu8_-3.251_cqd8_13.648_ctq8_-3.377_ctu8_-15.255_ctd8_-20.505_cqq13_6.864_cqq11_6.065_cqu1_1.403_cqd1_13.412_ctq1_6.891_ctu1_-5.305_ctd1_6.959'> +1.8950497e+02 </wgt>
<wgt id='eftrwgt116_ctg_0.484_cqq83_-5.877_cqq81_-0.844_cqu8_-8.226_cqd8_-12.543_ctq8_-7.938_ctu8_-14.308_ctd8_-16.759_cqq13_3.295_cqq11_-4.935_cqu1_1.553_cqd1_-2.747_ctq1_1.896_ctu1_-2.598_ctd1_1.468'> +6.5305515e+00 </wgt>
<wgt id='eftrwgt117_ctg_-0.766_cqq83_13.005_cqq81_4.278_cqu8_-5.789_cqd8_-2.642_ctq8_1.928_ctu8_-17.627_ctd8_13.206_cqq13_-3.352_cqq11_-4.623_cqu1_1.281_cqd1_-0.353_ctq1_-7.888_ctu1_-2.739_ctd1_-3.691'> +1.1837573e+02 </wgt>
<wgt id='eftrwgt118_ctg_-0.026_cqq83_16.863_cqq81_-3.657_cqu8_-14.653_cqd8_19.452_ctq8_-11.093_ctu8_7.169_ctd8_12.713_cqq13_2.219_cqq11_6.829_cqu1_-1.47_cqd1_13.329_ctq1_-8.726_ctu1_4.506_ctd1_-6.731'> +9.5552026e+01 </wgt>
<wgt id='eftrwgt119_ctg_-0.927_cqq83_14.324_cqq81_12.494_cqu8_-15.766_cqd8_-22.63_ctq8_7.771_ctu8_17.012_ctd8_-4.27_cqq13_-4.263_cqq11_7.096_cqu1_5.583_cqd1_7.465_ctq1_3.841_ctu1_9.204_ctd1_12.312'> +1.5253420e+02 </wgt>
<wgt id='eftrwgt120_ctg_-1.301_cqq83_2.61_cqq81_-0.228_cqu8_-13.019_cqd8_-7.21_ctq8_-10.88_ctu8_-12.7_ctd8_-9.515_cqq13_3.421_cqq11_-0.285_cqu1_-1.252_cqd1_-3.317_ctq1_7.885_ctu1_3.534_ctd1_11.001'> +1.1750032e+01 </wgt>
<wgt id='eftrwgt121_ctg_0.544_cqq83_-11.95_cqq81_-0.044_cqu8_-3.43_cqd8_-3.87_ctq8_-7.539_ctu8_-14.796_ctd8_-19.179_cqq13_3.035_cqq11_-7.307_cqu1_1.661_cqd1_-9.45_ctq1_-2.9_ctu1_7.446_ctd1_-4.846'> +3.4200063e+01 </wgt>
<wgt id='eftrwgt122_ctg_0.077_cqq83_12.997_cqq81_8.942_cqu8_-12.333_cqd8_-21.55_ctq8_8.94_ctu8_12.874_ctd8_-23.03_cqq13_7.882_cqq11_-0.681_cqu1_1.4_cqd1_6.361_ctq1_-0.884_ctu1_-0.375_ctd1_1.214'> +1.4302008e+02 </wgt>
<wgt id='eftrwgt123_ctg_-1.357_cqq83_9.311_cqq81_-6.821_cqu8_-3.271_cqd8_-16.074_ctq8_9.326_ctu8_14.404_ctd8_-2.447_cqq13_3.173_cqq11_-3.404_cqu1_2.525_cqd1_5.494_ctq1_-7.91_ctu1_-0.974_ctd1_4.439'> +3.7938634e+00 </wgt>
<wgt id='eftrwgt124_ctg_-1.223_cqq83_-12.321_cqq81_-7.848_cqu8_-2.265_cqd8_-5.02_ctq8_-13.565_ctu8_-9.074_ctd8_2.046_cqq13_-4.347_cqq11_5.557_cqu1_1.21_cqd1_-2.046_ctq1_-6.903_ctu1_-4.355_ctd1_2.297'> +6.5398917e+01 </wgt>
<wgt id='eftrwgt125_ctg_0.961_cqq83_6.0_cqq81_5.561_cqu8_-3.626_cqd8_-19.356_ctq8_-2.864_ctu8_-0.243_ctd8_23.255_cqq13_-8.112_cqq11_-5.996_cqu1_9.108_cqd1_-10.685_ctq1_-6.426_ctu1_-1.269_ctd1_3.35'> +1.9536764e+02 </wgt>
<wgt id='eftrwgt126_ctg_0.285_cqq83_-16.325_cqq81_0.476_cqu8_-16.347_cqd8_22.521_ctq8_-0.468_ctu8_-2.288_ctd8_22.57_cqq13_-7.864_cqq11_-2.689_cqu1_6.85_cqd1_8.701_ctq1_6.612_ctu1_10.799_ctd1_5.338'> +1.1667268e+02 </wgt>
<wgt id='eftrwgt127_ctg_-1.378_cqq83_-17.314_cqq81_-12.704_cqu8_-6.427_cqd8_-12.718_ctq8_4.311_ctu8_-7.334_ctd8_-24.506_cqq13_-8.01_cqq11_5.874_cqu1_0.468_cqd1_8.191_ctq1_-0.277_ctu1_8.517_ctd1_-7.478'> +1.4353444e+02 </wgt>
<wgt id='eftrwgt128_ctg_1.18_cqq83_-1.471_cqq81_2.433_cqu8_10.198_cqd8_23.306_ctq8_-12.125_ctu8_16.403_ctd8_18.18_cqq13_7.781_cqq11_-2.869_cqu1_-7.593_cqd1_-6.942_ctq1_0.572_ctu1_3.932_ctd1_-1.468'> +2.0292544e+01 </wgt>
<wgt id='eftrwgt129_ctg_0.941_cqq83_-4.592_cqq81_6.49_cqu8_-5.317_cqd8_16.947_ctq8_12.635_ctu8_-5.132_ctd8_22.403_cqq13_2.333_cqq11_-2.444_cqu1_7.188_cqd1_-3.684_ctq1_-5.675_ctu1_-4.027_ctd1_-1.358'> +3.7344295e+00 </wgt>
<wgt id='eftrwgt130_ctg_-0.208_cqq83_-17.622_cqq81_-2.397_cqu8_15.786_cqd8_15.249_ctq8_-1.44_ctu8_10.097_ctd8_-10.056_cqq13_-3.196_cqq11_4.986_cqu1_-0.332_cqd1_-13.619_ctq1_2.563_ctu1_1.892_ctd1_2.648'> +6.1419981e+01 </wgt>
<wgt id='eftrwgt131_ctg_1.247_cqq83_-17.63_cqq81_-10.818_cqu8_5.208_cqd8_0.681_ctq8_12.537_ctu8_-14.866_ctd8_3.091_cqq13_2.337_cqq11_-5.924_cqu1_5.379_cqd1_5.986_ctq1_-5.666_ctu1_10.553_ctd1_1.395'> +1.2758564e+02 </wgt>
<wgt id='eftrwgt132_ctg_-0.801_cqq83_7.262_cqq81_9.212_cqu8_-8.732_cqd8_-8.091_ctq8_-1.906_ctu8_3.948_ctd8_13.123_cqq13_2.692_cqq11_8.195_cqu1_0.96_cqd1_-1.571_ctq1_5.243_ctu1_-1.861_ctd1_-9.371'> +1.5464199e+02 </wgt>
<wgt id='eftrwgt133_ctg_-1.257_cqq83_16.117_cqq81_-9.715_cqu8_-7.571_cqd8_1.07_ctq8_2.477_ctu8_-7.002_ctd8_13.477_cqq13_-0.711_cqq11_7.763_cqu1_-6.041_cqd1_-7.251_ctq1_-2.998_ctu1_-2.904_ctd1_-12.567'> +4.9024451e+01 </wgt>
<wgt id='eftrwgt134_ctg_1.354_cqq83_-7.657_cqq81_-1.021_cqu8_-16.291_cqd8_1.184_ctq8_-2.275_ctu8_16.917_ctd8_-5.942_cqq13_5.969_cqq11_3.289_cqu1_-10.263_cqd1_4.064_ctq1_8.35_ctu1_-0.11_ctd1_0.257'> +8.1120958e+01 </wgt>
<wgt id='eftrwgt135_ctg_-0.715_cqq83_-9.614_cqq81_-10.763_cqu8_9.461_cqd8_21.044_ctq8_0.83_ctu8_16.276_ctd8_17.397_cqq13_7.427_cqq11_-7.592_cqu1_5.575_cqd1_-12.777_ctq1_0.413_ctu1_-0.337_ctd1_5.614'> +6.0900945e+01 </wgt>
<wgt id='eftrwgt136_ctg_1.148_cqq83_9.105_cqq81_7.25_cqu8_15.489_cqd8_-14.113_ctq8_-1.534_ctu8_-4.722_ctd8_-14.085_cqq13_7.64_cqq11_5.644_cqu1_6.289_cqd1_-3.464_ctq1_-4.467_ctu1_10.661_ctd1_-10.103'> +1.9363860e+02 </wgt>
<wgt id='eftrwgt137_ctg_0.519_cqq83_-3.88_cqq81_5.428_cqu8_-11.688_cqd8_12.458_ctq8_5.584_ctu8_4.192_ctd8_-4.494_cqq13_0.22_cqq11_6.429_cqu1_0.379_cqd1_-2.464_ctq1_3.48_ctu1_8.707_ctd1_10.184'> +3.9049861e+01 </wgt>
<wgt id='eftrwgt138_ctg_0.044_cqq83_15.014_cqq81_-2.24_cqu8_-0.07_cqd8_15.723_ctq8_4.233_ctu8_15.378_ctd8_22.326_cqq13_5.742_cqq11_-7.973_cqu1_5.127_cqd1_8.3_ctq1_-2.237_ctu1_-6.818_ctd1_9.184'> +4.2767325e+01 </wgt>
<wgt id='eftrwgt139_ctg_0.536_cqq83_3.108_cqq81_-2.815_cqu8_17.298_cqd8_-20.517_ctq8_-0.558_ctu8_5.522_ctd8_9.105_cqq13_7.706_cqq11_-1.121_cqu1_6.904_cqd1_-8.677_ctq1_0.168_ctu1_4.991_ctd1_3.884'> +3.5093375e+01 </wgt>
<wgt id='eftrwgt140_ctg_-1.222_cqq83_14.489_cqq81_7.936_cqu8_-5.001_cqd8_-7.099_ctq8_0.704_ctu8_-16.077_ctd8_15.282_cqq13_3.777_cqq11_4.884_cqu1_-3.897_cqd1_-3.233_ctq1_-0.56_ctu1_1.21_ctd1_-11.922'> +1.5973912e+02 </wgt>
<wgt id='eftrwgt141_ctg_-0.595_cqq83_-16.264_cqq81_7.534_cqu8_-4.512_cqd8_17.409_ctq8_3.217_ctu8_-8.193_ctd8_8.464_cqq13_-7.686_cqq11_-1.06_cqu1_4.135_cqd1_9.485_ctq1_-2.481_ctu1_4.42_ctd1_3.636'> +7.0114079e+01 </wgt>
<wgt id='eftrwgt142_ctg_1.208_cqq83_4.059_cqq81_6.781_cqu8_-5.717_cqd8_-21.408_ctq8_0.083_ctu8_14.943_ctd8_11.388_cqq13_0.694_cqq11_-5.103_cqu1_-7.402_cqd1_13.43_ctq1_3.406_ctu1_2.945_ctd1_5.188'> +4.3561427e+01 </wgt>
<wgt id='eftrwgt143_ctg_0.787_cqq83_2.859_cqq81_-12.404_cqu8_17.905_cqd8_18.147_ctq8_5.594_ctu8_13.171_ctd8_-8.3_cqq13_-1.709_cqq11_3.715_cqu1_-2.267_cqd1_0.319_ctq1_-2.513_ctu1_-6.093_ctd1_0.66'> +1.2032463e+01 </wgt>
<wgt id='eftrwgt144_ctg_0.369_cqq83_12.119_cqq81_10.451_cqu8_-4.308_cqd8_10.751_ctq8_2.903_ctu8_-16.453_ctd8_12.168_cqq13_-7.8_cqq11_-4.495_cqu1_-7.968_cqd1_-11.778_ctq1_-0.673_ctu1_9.838_ctd1_7.574'> +2.2580603e+02 </wgt>
<wgt id='eftrwgt145_ctg_-0.314_cqq83_-7.538_cqq81_9.523_cqu8_-0.965_cqd8_7.921_ctq8_-3.669_ctu8_-17.137_ctd8_13.302_cqq13_-0.272_cqq11_-1.659_cqu1_-4.888_cqd1_2.565_ctq1_-4.075_ctu1_7.665_ctd1_4.628'> +5.8008867e+00 </wgt>
<wgt id='eftrwgt146_ctg_-0.028_cqq83_17.018_cqq81_4.288_cqu8_2.423_cqd8_9.91_ctq8_-1.803_ctu8_-7.374_ctd8_-22.743_cqq13_1.412_cqq11_1.518_cqu1_-5.031_cqd1_4.621_ctq1_-2.805_ctu1_-7.971_ctd1_2.504'> +9.9172230e+01 </wgt>
<wgt id='eftrwgt147_ctg_0.512_cqq83_9.531_cqq81_-2.016_cqu8_15.155_cqd8_-1.954_ctq8_-13.237_ctu8_1.868_ctd8_5.908_cqq13_-7.773_cqq11_7.257_cqu1_4.489_cqd1_2.963_ctq1_-3.777_ctu1_5.458_ctd1_-6.432'> +1.4058274e+01 </wgt>
<wgt id='eftrwgt148_ctg_-0.482_cqq83_17.097_cqq81_10.457_cqu8_-6.705_cqd8_-13.185_ctq8_-4.371_ctu8_14.509_ctd8_-13.32_cqq13_1.822_cqq11_0.354_cqu1_7.002_cqd1_10.541_ctq1_5.822_ctu1_5.744_ctd1_-13.15'> +1.5271941e+02 </wgt>
<wgt id='eftrwgt149_ctg_-0.905_cqq83_0.86_cqq81_-13.515_cqu8_11.771_cqd8_-1.866_ctq8_13.439_ctu8_0.144_ctd8_13.675_cqq13_-5.569_cqq11_-7.731_cqu1_1.84_cqd1_3.468_ctq1_-5.507_ctu1_1.982_ctd1_-13.061'> +1.6364798e+02 </wgt>
<wgt id='eftrwgt150_ctg_0.0_cqq83_-11.426_cqq81_-6.524_cqu8_-16.088_cqd8_-21.27_ctq8_10.524_ctu8_14.233_ctd8_17.255_cqq13_4.89_cqq11_-4.416_cqu1_4.918_cqd1_-11.767_ctq1_1.268_ctu1_3.231_ctd1_-6.475'> +4.2849262e+01 </wgt>
<wgt id='eftrwgt151_ctg_-0.918_cqq83_-17.499_cqq81_-6.826_cqu8_10.016_cqd8_16.971_ctq8_1.599_ctu8_16.783_ctd8_5.312_cqq13_-2.351_cqq11_-1.209_cqu1_0.269_cqd1_-8.867_ctq1_-7.829_ctu1_-1.326_ctd1_-0.175'> +1.0162345e+02 </wgt>
<wgt id='eftrwgt152_ctg_-0.246_cqq83_8.939_cqq81_-6.847_cqu8_-18.344_cqd8_21.999_ctq8_6.606_ctu8_9.509_ctd8_17.198_cqq13_-1.071_cqq11_7.466_cqu1_-6.387_cqd1_-1.912_ctq1_8.495_ctu1_-3.261_ctd1_8.87'> +3.9471626e+01 </wgt>
<wgt id='eftrwgt153_ctg_0.903_cqq83_-16.714_cqq81_4.491_cqu8_13.339_cqd8_3.836_ctq8_10.658_ctu8_1.169_ctd8_-12.868_cqq13_-4.118_cqq11_5.124_cqu1_5.936_cqd1_-5.521_ctq1_-6.529_ctu1_-3.471_ctd1_-8.961'> +1.6758522e+01 </wgt>
<wgt id='eftrwgt154_ctg_-0.773_cqq83_-11.295_cqq81_11.399_cqu8_12.409_cqd8_-7.958_ctq8_-6.63_ctu8_17.921_ctd8_-4.387_cqq13_-1.075_cqq11_-3.648_cqu1_0.733_cqd1_9.925_ctq1_-5.979_ctu1_6.286_ctd1_-8.945'> +2.0113681e+01 </wgt>
<wgt id='eftrwgt155_ctg_-1.155_cqq83_10.436_cqq81_11.789_cqu8_11.375_cqd8_0.293_ctq8_-12.103_ctu8_-1.324_ctd8_-13.307_cqq13_0.647_cqq11_-1.508_cqu1_4.529_cqd1_-4.847_ctq1_-1.864_ctu1_7.458_ctd1_-2.56'> +9.5182776e+01 </wgt>
<wgt id='eftrwgt156_ctg_1.116_cqq83_-1.502_cqq81_7.154_cqu8_-6.575_cqd8_-19.147_ctq8_-2.196_ctu8_15.471_ctd8_-13.501_cqq13_6.413_cqq11_3.8_cqu1_-1.927_cqd1_3.978_ctq1_3.939_ctu1_-0.696_ctd1_7.298'> +9.5370495e+01 </wgt>
<wgt id='eftrwgt157_ctg_-0.739_cqq83_2.709_cqq81_13.851_cqu8_9.744_cqd8_-15.601_ctq8_-3.406_ctu8_0.534_ctd8_13.826_cqq13_-5.94_cqq11_0.154_cqu1_4.119_cqd1_-0.999_ctq1_7.262_ctu1_1.145_ctd1_4.349'> +8.0484496e+01 </wgt>
<wgt id='eftrwgt158_ctg_-0.16_cqq83_8.752_cqq81_-10.353_cqu8_13.772_cqd8_-19.74_ctq8_1.97_ctu8_-17.022_ctd8_-15.946_cqq13_4.368_cqq11_-3.748_cqu1_-3.331_cqd1_1.681_ctq1_0.02_ctu1_3.467_ctd1_11.988'> +3.1926660e-01 </wgt>
<wgt id='eftrwgt159_ctg_-0.773_cqq83_-5.383_cqq81_11.182_cqu8_14.253_cqd8_22.486_ctq8_4.123_ctu8_16.717_ctd8_16.197_cqq13_7.633_cqq11_3.65_cqu1_3.518_cqd1_4.557_ctq1_0.213_ctu1_-8.115_ctd1_5.813'> +1.1070104e+02 </wgt>
<wgt id='eftrwgt160_ctg_-0.954_cqq83_13.029_cqq81_10.509_cqu8_2.914_cqd8_-7.008_ctq8_3.519_ctu8_-4.882_ctd8_-8.587_cqq13_-4.654_cqq11_6.741_cqu1_-8.034_cqd1_8.536_ctq1_7.776_ctu1_8.243_ctd1_-6.062'> +1.1707080e+02 </wgt>
<wgt id='eftrwgt161_ctg_0.783_cqq83_-0.823_cqq81_-10.667_cqu8_6.458_cqd8_-6.599_ctq8_5.205_ctu8_-17.575_ctd8_-8.783_cqq13_-6.096_cqq11_-7.308_cqu1_-4.219_cqd1_4.937_ctq1_-6.352_ctu1_4.953_ctd1_3.017'> +1.6280818e+02 </wgt>
<wgt id='eftrwgt162_ctg_-0.671_cqq83_16.815_cqq81_-12.317_cqu8_1.448_cqd8_10.899_ctq8_4.606_ctu8_-11.122_ctd8_-10.201_cqq13_4.82_cqq11_3.575_cqu1_-8.572_cqd1_11.857_ctq1_5.276_ctu1_-9.587_ctd1_8.531'> +6.6046000e+01 </wgt>
<wgt id='eftrwgt163_ctg_1.242_cqq83_16.122_cqq81_-8.636_cqu8_-5.852_cqd8_7.335_ctq8_-5.7_ctu8_-13.545_ctd8_24.321_cqq13_5.114_cqq11_-6.63_cqu1_-4.255_cqd1_8.437_ctq1_-6.875_ctu1_9.128_ctd1_2.843'> +1.7911419e+01 </wgt>
<wgt id='eftrwgt164_ctg_1.092_cqq83_-5.055_cqq81_-8.599_cqu8_4.203_cqd8_-7.68_ctq8_-11.588_ctu8_0.276_ctd8_17.336_cqq13_-7.727_cqq11_-5.834_cqu1_-7.894_cqd1_-13.963_ctq1_8.207_ctu1_2.956_ctd1_-11.592'> +1.6229809e+02 </wgt>
<wgt id='eftrwgt165_ctg_0.595_cqq83_4.636_cqq81_-0.11_cqu8_-0.581_cqd8_-20.832_ctq8_-0.558_ctu8_4.659_ctd8_14.601_cqq13_-7.948_cqq11_3.039_cqu1_4.976_cqd1_-0.906_ctq1_-5.244_ctu1_-2.665_ctd1_-11.849'> +2.8281695e+01 </wgt>
<wgt id='eftrwgt166_ctg_1.216_cqq83_5.127_cqq81_1.484_cqu8_12.31_cqd8_15.332_ctq8_-1.18_ctu8_2.062_ctd8_7.64_cqq13_-3.138_cqq11_3.748_cqu1_-2.564_cqd1_-4.289_ctq1_4.03_ctu1_7.302_ctd1_-7.704'> +1.3646409e+01 </wgt>
<wgt id='eftrwgt167_ctg_1.033_cqq83_5.72_cqq81_-1.985_cqu8_-0.401_cqd8_0.76_ctq8_-4.788_ctu8_5.904_ctd8_-7.804_cqq13_5.806_cqq11_-6.292_cqu1_-1.952_cqd1_-8.265_ctq1_2.846_ctu1_-6.057_ctd1_7.749'> +5.5411883e+00 </wgt>
<wgt id='eftrwgt168_ctg_-0.37_cqq83_17.55_cqq81_9.651_cqu8_-15.831_cqd8_-2.866_ctq8_-6.609_ctu8_-14.397_ctd8_5.753_cqq13_5.663_cqq11_-8.112_cqu1_-9.915_cqd1_6.099_ctq1_-0.019_ctu1_-1.021_ctd1_-5.252'> +1.4831913e+02 </wgt>
<wgt id='eftrwgt169_ctg_-1.172_cqq83_17.994_cqq81_-4.282_cqu8_-10.241_cqd8_-2.149_ctq8_-9.811_ctu8_-0.052_ctd8_20.563_cqq13_0.796_cqq11_-3.46_cqu1_8.811_cqd1_-11.665_ctq1_2.613_ctu1_-2.034_ctd1_-11.62'> +4.3552932e+01 </wgt>
<wgt id='eftrwgt170_ctg_-1.173_cqq83_-5.111_cqq81_9.87_cqu8_12.84_cqd8_15.747_ctq8_6.145_ctu8_16.166_ctd8_21.901_cqq13_1.621_cqq11_-4.815_cqu1_-6.967_cqd1_-9.672_ctq1_8.708_ctu1_-3.905_ctd1_5.596'> +1.3785389e+01 </wgt>
<wgt id='eftrwgt171_ctg_-0.487_cqq83_-3.728_cqq81_-2.089_cqu8_-8.617_cqd8_-3.165_ctq8_5.221_ctu8_-6.935_ctd8_-10.922_cqq13_2.93_cqq11_-3.943_cqu1_0.026_cqd1_10.454_ctq1_1.412_ctu1_-4.837_ctd1_4.419'> +3.2773698e+00 </wgt>
<wgt id='eftrwgt172_ctg_0.395_cqq83_8.99_cqq81_-3.002_cqu8_-13.401_cqd8_-8.393_ctq8_6.268_ctu8_10.287_ctd8_3.578_cqq13_-0.326_cqq11_0.491_cqu1_-1.452_cqd1_0.292_ctq1_2.055_ctu1_8.333_ctd1_-11.0'> +1.1863519e+01 </wgt>
<wgt id='eftrwgt173_ctg_-0.268_cqq83_-9.609_cqq81_-10.088_cqu8_-10.258_cqd8_2.411_ctq8_-9.923_ctu8_-12.813_ctd8_-11.549_cqq13_-0.115_cqq11_0.881_cqu1_3.83_cqd1_-7.017_ctq1_-5.831_ctu1_5.916_ctd1_9.799'> +5.9336163e+01 </wgt>
<wgt id='eftrwgt174_ctg_0.0_cqq83_14.255_cqq81_-3.162_cqu8_7.632_cqd8_8.455_ctq8_-10.706_ctu8_12.248_ctd8_-7.818_cqq13_-7.674_cqq11_3.169_cqu1_-10.606_cqd1_10.997_ctq1_7.461_ctu1_-1.024_ctd1_-12.78'> +4.0581644e+01 </wgt>
<wgt id='eftrwgt175_ctg_0.97_cqq83_0.362_cqq81_12.475_cqu8_-6.155_cqd8_12.941_ctq8_-11.631_ctu8_12.793_ctd8_5.998_cqq13_5.415_cqq11_3.61_cqu1_3.086_cqd1_11.222_ctq1_-7.83_ctu1_7.604_ctd1_-6.316'> +9.4939149e+01 </wgt>
<wgt id='eftrwgt176_ctg_-0.671_cqq83_9.217_cqq81_12.675_cqu8_-5.504_cqd8_11.909_ctq8_-13.928_ctu8_3.526_ctd8_12.153_cqq13_6.419_cqq11_-4.462_cqu1_-8.472_cqd1_-6.853_ctq1_-5.497_ctu1_9.273_ctd1_7.938'> +9.4212027e+01 </wgt>
<wgt id='eftrwgt177_ctg_-0.305_cqq83_7.149_cqq81_-4.524_cqu8_-16.678_cqd8_-16.144_ctq8_5.076_ctu8_-17.746_ctd8_16.893_cqq13_4.267_cqq11_2.618_cqu1_4.353_cqd1_8.975_ctq1_4.66_ctu1_3.456_ctd1_-10.007'> +4.3532451e+01 </wgt>
<wgt id='eftrwgt178_ctg_-0.022_cqq83_13.793_cqq81_-0.578_cqu8_13.877_cqd8_-10.596_ctq8_10.476_ctu8_5.651_ctd8_8.781_cqq13_7.781_cqq11_-0.157_cqu1_-3.425_cqd1_10.096_ctq1_-6.687_ctu1_-1.677_ctd1_2.543'> +8.4340284e+01 </wgt>
<wgt id='eftrwgt179_ctg_0.497_cqq83_-6.916_cqq81_13.035_cqu8_-5.975_cqd8_12.419_ctq8_5.679_ctu8_-2.58_ctd8_-17.339_cqq13_-3.741_cqq11_-1.097_cqu1_-5.551_cqd1_-0.983_ctq1_-5.692_ctu1_4.263_ctd1_4.456'> +3.2721078e+01 </wgt>
<wgt id='sm_point'> +5.9369930e-01 </wgt>
<wgt id='1001'> +1.1579678e+02 </wgt>
<wgt id='1002'> +9.5022034e+01 </wgt>
<wgt id='1003'> +9.5022034e+01 </wgt>
<wgt id='1004'> +1.1646480e+02 </wgt>
<wgt id='1005'> +9.4447065e+01 </wgt>
<wgt id='1006'> +9.8465656e+01 </wgt>
<wgt id='1007'> +8.1797093e+01 </wgt>
<wgt id='1008'> +8.1797093e+01 </wgt>
<wgt id='1009'> +9.8996408e+01 </wgt>
<wgt id='1010'> +8.1331329e+01 </wgt>
<wgt id='1011'> +1.3822676e+02 </wgt>
<wgt id='1012'> +1.1178913e+02 </wgt>
<wgt id='1013'> +1.1178913e+02 </wgt>
<wgt id='1014'> +1.3908589e+02 </wgt>
<wgt id='1015'> +1.1106546e+02 </wgt>
<wgt id='1016'> +1.1114807e+02 </wgt>
<wgt id='1017'> +9.1223751e+01 </wgt>
<wgt id='1018'> +9.1223751e+01 </wgt>
<wgt id='1019'> +1.1178913e+02 </wgt>
<wgt id='1020'> +9.0672803e+01 </wgt>
<wgt id='1021'> +9.4512714e+01 </wgt>
<wgt id='1022'> +7.8527446e+01 </wgt>
<wgt id='1023'> +7.8527446e+01 </wgt>
<wgt id='1024'> +9.5022034e+01 </wgt>
<wgt id='1025'> +7.8081193e+01 </wgt>
<wgt id='1026'> +1.3267759e+02 </wgt>
<wgt id='1027'> +1.0732062e+02 </wgt>
<wgt id='1028'> +1.0732062e+02 </wgt>
<wgt id='1029'> +1.3350205e+02 </wgt>
<wgt id='1030'> +1.0662710e+02 </wgt>
<wgt id='1031'> +1.2061948e+02 </wgt>
<wgt id='1032'> +9.8996408e+01 </wgt>
<wgt id='1033'> +9.8996408e+01 </wgt>
<wgt id='1034'> +1.2131344e+02 </wgt>
<wgt id='1035'> +9.8397242e+01 </wgt>
<wgt id='1036'> +1.0256655e+02 </wgt>
<wgt id='1037'> +8.5218323e+01 </wgt>
<wgt id='1038'> +8.5218323e+01 </wgt>
<wgt id='1039'> +1.0311781e+02 </wgt>
<wgt id='1040'> +8.4732950e+01 </wgt>
<wgt id='1041'> +1.4398363e+02 </wgt>
<wgt id='1042'> +1.1646480e+02 </wgt>
<wgt id='1043'> +1.1646480e+02 </wgt>
<wgt id='1044'> +1.4487628e+02 </wgt>
<wgt id='1045'> +1.1571069e+02 </wgt>
<wgt id='1046'> +1.1579678e+02 </wgt>
<wgt id='1047'> +1.1579678e+02 </wgt>
<wgt id='1048'> +1.1579678e+02 </wgt>
<wgt id='1049'> +1.1571079e+02 </wgt>
<wgt id='1050'> +1.1556808e+02 </wgt>
<wgt id='1051'> +1.1567096e+02 </wgt>
<wgt id='1052'> +1.1575016e+02 </wgt>
<wgt id='1053'> +1.1586234e+02 </wgt>
<wgt id='1054'> +1.1548131e+02 </wgt>
<wgt id='1055'> +1.1567316e+02 </wgt>
<wgt id='1056'> +1.1532883e+02 </wgt>
<wgt id='1057'> +1.1628245e+02 </wgt>
<wgt id='1058'> +1.1532997e+02 </wgt>
<wgt id='1059'> +1.1574935e+02 </wgt>
<wgt id='1060'> +1.1567117e+02 </wgt>
<wgt id='1061'> +1.1604460e+02 </wgt>
<wgt id='1062'> +1.1612362e+02 </wgt>
<wgt id='1063'> +1.1653816e+02 </wgt>
<wgt id='1064'> +1.1541576e+02 </wgt>
<wgt id='1065'> +1.1570911e+02 </wgt>
<wgt id='1066'> +1.1506606e+02 </wgt>
<wgt id='1067'> +1.1584350e+02 </wgt>
<wgt id='1068'> +1.1543291e+02 </wgt>
<wgt id='1069'> +1.1549594e+02 </wgt>
<wgt id='1070'> +1.1646637e+02 </wgt>
<wgt id='1071'> +1.1521980e+02 </wgt>
<wgt id='1072'> +1.1523859e+02 </wgt>
<wgt id='1073'> +1.1568901e+02 </wgt>
<wgt id='1074'> +1.1585381e+02 </wgt>
<wgt id='1075'> +1.1563545e+02 </wgt>
<wgt id='1076'> +1.1646029e+02 </wgt>
<wgt id='1077'> +1.1663927e+02 </wgt>
<wgt id='1078'> +1.1578616e+02 </wgt>
<wgt id='1079'> +1.1716591e+02 </wgt>
<wgt id='1080'> +1.1596789e+02 </wgt>
<wgt id='1081'> +1.1584236e+02 </wgt>
<wgt id='1082'> +1.1621268e+02 </wgt>
<wgt id='1083'> +1.1549301e+02 </wgt>
<wgt id='1084'> +1.1490122e+02 </wgt>
<wgt id='1085'> +1.1647808e+02 </wgt>
<wgt id='1086'> +1.1573468e+02 </wgt>
<wgt id='1087'> +1.1576962e+02 </wgt>
<wgt id='1088'> +1.1594065e+02 </wgt>
<wgt id='1089'> +1.1562435e+02 </wgt>
<wgt id='1090'> +1.1553868e+02 </wgt>
<wgt id='1091'> +1.1579555e+02 </wgt>
<wgt id='1092'> +1.1593808e+02 </wgt>
<wgt id='1093'> +1.1574298e+02 </wgt>
<wgt id='1094'> +1.1573243e+02 </wgt>
<wgt id='1095'> +1.1560121e+02 </wgt>
<wgt id='1096'> +1.1593879e+02 </wgt>
<wgt id='1097'> +1.1558838e+02 </wgt>
<wgt id='1098'> +1.1580149e+02 </wgt>
<wgt id='1099'> +1.1580010e+02 </wgt>
<wgt id='1100'> +1.1603517e+02 </wgt>
<wgt id='1101'> +1.1563306e+02 </wgt>
<wgt id='1102'> +1.1565192e+02 </wgt>
<wgt id='1103'> +1.1595675e+02 </wgt>
<wgt id='1104'> +1.1611222e+02 </wgt>
<wgt id='1105'> +1.1585567e+02 </wgt>
<wgt id='1106'> +1.1577988e+02 </wgt>
<wgt id='1107'> +1.1577817e+02 </wgt>
<wgt id='1108'> +1.1576626e+02 </wgt>
<wgt id='1109'> +1.1592179e+02 </wgt>
<wgt id='1110'> +1.1580304e+02 </wgt>
<wgt id='1111'> +1.1585832e+02 </wgt>
<wgt id='1112'> +1.1611391e+02 </wgt>
<wgt id='1113'> +1.1553787e+02 </wgt>
<wgt id='1114'> +1.1566531e+02 </wgt>
<wgt id='1115'> +1.1601134e+02 </wgt>
<wgt id='1116'> +1.1579179e+02 </wgt>
<wgt id='1117'> +1.1588795e+02 </wgt>
<wgt id='1118'> +1.1582674e+02 </wgt>
<wgt id='1119'> +1.1600977e+02 </wgt>
<wgt id='1120'> +1.1576068e+02 </wgt>
<wgt id='1121'> +1.1598838e+02 </wgt>
<wgt id='1122'> +1.1599741e+02 </wgt>
<wgt id='1123'> +1.1592407e+02 </wgt>
<wgt id='1124'> +1.1569925e+02 </wgt>
<wgt id='1125'> +1.1568386e+02 </wgt>
<wgt id='1126'> +1.1588582e+02 </wgt>
<wgt id='1127'> +1.1561496e+02 </wgt>
<wgt id='1128'> +1.1586236e+02 </wgt>
<wgt id='1129'> +1.1568212e+02 </wgt>
<wgt id='1130'> +1.1579195e+02 </wgt>
<wgt id='1131'> +1.1584925e+02 </wgt>
<wgt id='1132'> +1.1585841e+02 </wgt>
<wgt id='1133'> +1.1579279e+02 </wgt>
<wgt id='1134'> +1.1565701e+02 </wgt>
<wgt id='1135'> +1.1579644e+02 </wgt>
<wgt id='1136'> +1.1575623e+02 </wgt>
<wgt id='1137'> +1.1580324e+02 </wgt>
<wgt id='1138'> +1.1585590e+02 </wgt>
<wgt id='1139'> +1.1581768e+02 </wgt>
<wgt id='1140'> +1.1593335e+02 </wgt>
<wgt id='1141'> +1.1570937e+02 </wgt>
<wgt id='1142'> +1.1582155e+02 </wgt>
<wgt id='1143'> +1.1578406e+02 </wgt>
<wgt id='1144'> +1.1582188e+02 </wgt>
<wgt id='1145'> +1.1582287e+02 </wgt>
<wgt id='1146'> +1.1578056e+02 </wgt>
<wgt id='1147'> +1.1578947e+02 </wgt>
<wgt id='1148'> +1.1579678e+02 </wgt>
<wgt id='1149'> +1.1321377e+02 </wgt>
<wgt id='1150'> +1.1868281e+02 </wgt>
<wgt id='1151'> +1.1579678e+02 </wgt>
<wgt id='1152'> +1.2396668e+02 </wgt>
<wgt id='1153'> +1.1610508e+02 </wgt>
<wgt id='1154'> +1.1636260e+02 </wgt>
<wgt id='1155'> +1.1362271e+02 </wgt>
<wgt id='1156'> +1.1228849e+02 </wgt>
<wgt id='1157'> +1.1992247e+02 </wgt>
<wgt id='1158'> +1.1625962e+02 </wgt>
<wgt id='1159'> +1.1430537e+02 </wgt>
<wgt id='1160'> +1.1406551e+02 </wgt>
<wgt id='1161'> +1.0757940e+02 </wgt>
<wgt id='1162'> +1.1443794e+02 </wgt>
<wgt id='1163'> +1.1426993e+02 </wgt>
<wgt id='1164'> +1.1186851e+02 </wgt>
<wgt id='1165'> +1.1754329e+02 </wgt>
<wgt id='1166'> +1.1748614e+02 </wgt>
<wgt id='1167'> +1.1620363e+02 </wgt>
<wgt id='1168'> +1.1867913e+02 </wgt>
<wgt id='1169'> +1.1326950e+02 </wgt>
<wgt id='1170'> +1.1626341e+02 </wgt>
<wgt id='1171'> +1.1013548e+02 </wgt>
<wgt id='1172'> +1.1876986e+02 </wgt>
<wgt id='1173'> +1.2106325e+02 </wgt>
<wgt id='1174'> +1.1970708e+02 </wgt>
<wgt id='1175'> +1.1160220e+02 </wgt>
<wgt id='1176'> +1.1784718e+02 </wgt>
<wgt id='1177'> +1.2000436e+02 </wgt>
<wgt id='1178'> +1.1535589e+02 </wgt>
<wgt id='1179'> +1.1620362e+02 </wgt>
<wgt id='1180'> +1.1579696e+02 </wgt>
<wgt id='1181'> +1.1516124e+02 </wgt>
<wgt id='1182'> +1.2272832e+02 </wgt>
<wgt id='1183'> +1.1420421e+02 </wgt>
<wgt id='1184'> +1.2057660e+02 </wgt>
<wgt id='1185'> +1.1192136e+02 </wgt>
<wgt id='1186'> +1.1523072e+02 </wgt>
<wgt id='1187'> +1.1905063e+02 </wgt>
<wgt id='1188'> +1.1383368e+02 </wgt>
<wgt id='1189'> +1.1407458e+02 </wgt>
<wgt id='1190'> +1.1146809e+02 </wgt>
<wgt id='1191'> +1.1895460e+02 </wgt>
<wgt id='1192'> +1.1693584e+02 </wgt>
<wgt id='1193'> +1.1586272e+02 </wgt>
<wgt id='1194'> +1.1611934e+02 </wgt>
<wgt id='1195'> +1.1838085e+02 </wgt>
<wgt id='1196'> +1.1667977e+02 </wgt>
<wgt id='1197'> +1.1725354e+02 </wgt>
<wgt id='1198'> +1.1747772e+02 </wgt>
<wgt id='1199'> +1.1410795e+02 </wgt>
<wgt id='1200'> +1.1771105e+02 </wgt>
<wgt id='1201'> +1.1452851e+02 </wgt>
<wgt id='1202'> +1.1313321e+02 </wgt>
<wgt id='1203'> +1.1677685e+02 </wgt>
<wgt id='1204'> +1.1403389e+02 </wgt>
<wgt id='1205'> +1.1924858e+02 </wgt>
<wgt id='1206'> +1.2015350e+02 </wgt>
<wgt id='1207'> +1.1410137e+02 </wgt>
<wgt id='1208'> +1.1832876e+02 </wgt>
<wgt id='1209'> +1.1684054e+02 </wgt>
<wgt id='1210'> +1.1743943e+02 </wgt>
<wgt id='1211'> +1.2230034e+02 </wgt>
<wgt id='1212'> +1.1593745e+02 </wgt>
<wgt id='1213'> +1.1504799e+02 </wgt>
<wgt id='1214'> +1.1449103e+02 </wgt>
<wgt id='1215'> +1.1421391e+02 </wgt>
<wgt id='1216'> +1.2075538e+02 </wgt>
<wgt id='1217'> +1.1585416e+02 </wgt>
<wgt id='1218'> +1.1700586e+02 </wgt>
<wgt id='1219'> +1.1653781e+02 </wgt>
<wgt id='1220'> +1.1617489e+02 </wgt>
<wgt id='1221'> +1.1475387e+02 </wgt>
<wgt id='1222'> +1.1363597e+02 </wgt>
<wgt id='1223'> +1.0881545e+02 </wgt>
<wgt id='1224'> +1.1171687e+02 </wgt>
<wgt id='1225'> +1.1209748e+02 </wgt>
<wgt id='1226'> +1.1107761e+02 </wgt>
<wgt id='1227'> +1.2137422e+02 </wgt>
<wgt id='1228'> +1.1121237e+02 </wgt>
<wgt id='1229'> +1.1920588e+02 </wgt>
<wgt id='1230'> +1.1592285e+02 </wgt>
<wgt id='1231'> +1.1165125e+02 </wgt>
<wgt id='1232'> +1.1665826e+02 </wgt>
<wgt id='1233'> +1.1620363e+02 </wgt>
<wgt id='1234'> +1.1600173e+02 </wgt>
<wgt id='1235'> +1.1402266e+02 </wgt>
<wgt id='1236'> +1.1655939e+02 </wgt>
<wgt id='1237'> +1.1539805e+02 </wgt>
<wgt id='1238'> +1.1271696e+02 </wgt>
<wgt id='1239'> +1.1544982e+02 </wgt>
<wgt id='1240'> +1.0855845e+02 </wgt>
<wgt id='1241'> +1.1730214e+02 </wgt>
<wgt id='1242'> +1.1852770e+02 </wgt>
<wgt id='1243'> +1.1322828e+02 </wgt>
<wgt id='1244'> +1.1385117e+02 </wgt>
<wgt id='1245'> +1.1395741e+02 </wgt>
<wgt id='1246'> +1.1494129e+02 </wgt>
<wgt id='1247'> +1.1911893e+02 </wgt>
<wgt id='1248'> +1.1631807e+02 </wgt>
<wgt id='1249'> +1.1557076e+02 </wgt>
<wgt id='1250'> +1.1650189e+02 </wgt>
<wgt id='1251'> +1.1583434e+02 </wgt>
<wgt id='1252'> +1.1590783e+02 </wgt>
<wgt id='1253'> +1.1584622e+02 </wgt>
<wgt id='1254'> +1.1615941e+02 </wgt>
<wgt id='1255'> +1.1605041e+02 </wgt>
<wgt id='1256'> +1.1602387e+02 </wgt>
<wgt id='1257'> +1.1593392e+02 </wgt>
<wgt id='1258'> +1.1598417e+02 </wgt>
<wgt id='1259'> +1.1570907e+02 </wgt>
<wgt id='1260'> +1.1592231e+02 </wgt>
<wgt id='1261'> +1.1626022e+02 </wgt>
<wgt id='1262'> +1.1574763e+02 </wgt>
<wgt id='1263'> +1.1560577e+02 </wgt>
<wgt id='1264'> +1.1608874e+02 </wgt>
<wgt id='1265'> +1.1584211e+02 </wgt>
<wgt id='1266'> +1.1707006e+02 </wgt>
<wgt id='1267'> +1.1603662e+02 </wgt>
<wgt id='1268'> +1.1655233e+02 </wgt>
<wgt id='1269'> +1.1571230e+02 </wgt>
<wgt id='1270'> +1.1566419e+02 </wgt>
<wgt id='1271'> +1.1599974e+02 </wgt>
<wgt id='1272'> +1.1593060e+02 </wgt>
<wgt id='1273'> +1.1633585e+02 </wgt>
<wgt id='1274'> +1.1628854e+02 </wgt>
<wgt id='1275'> +1.1499520e+02 </wgt>
<wgt id='1276'> +1.1588507e+02 </wgt>
<wgt id='1277'> +1.1620384e+02 </wgt>
<wgt id='1278'> +1.1521447e+02 </wgt>
<wgt id='1279'> +1.1641451e+02 </wgt>
<wgt id='1280'> +1.1632792e+02 </wgt>
<wgt id='1281'> +1.1447380e+02 </wgt>
<wgt id='1282'> +1.1467695e+02 </wgt>
<wgt id='1283'> +1.1609888e+02 </wgt>
<wgt id='1284'> +1.1598369e+02 </wgt>
<wgt id='1285'> +1.1613871e+02 </wgt>
<wgt id='1286'> +1.1602058e+02 </wgt>
<wgt id='1287'> +1.1574024e+02 </wgt>
<wgt id='1288'> +1.1583163e+02 </wgt>
<wgt id='1289'> +1.1607114e+02 </wgt>
<wgt id='1290'> +1.1591569e+02 </wgt>
<wgt id='1291'> +1.1581105e+02 </wgt>
<wgt id='1292'> +1.1580027e+02 </wgt>
<wgt id='1293'> +1.1582391e+02 </wgt>
<wgt id='1294'> +1.1577565e+02 </wgt>
<wgt id='1295'> +1.1613522e+02 </wgt>
<wgt id='1296'> +1.1574779e+02 </wgt>
<wgt id='1297'> +1.1633977e+02 </wgt>
<wgt id='1298'> +1.1615454e+02 </wgt>
<wgt id='1299'> +1.1589403e+02 </wgt>
<wgt id='1300'> +1.1637770e+02 </wgt>
<wgt id='1301'> +1.1588358e+02 </wgt>
<wgt id='1302'> +1.1628072e+02 </wgt>
<wgt id='1303'> +1.1644275e+02 </wgt>
<wgt id='1304'> +1.1595616e+02 </wgt>
<wgt id='1305'> +1.1607183e+02 </wgt>
<wgt id='1306'> +1.1614169e+02 </wgt>
<wgt id='1307'> +1.1589712e+02 </wgt>
<wgt id='1308'> +1.1565292e+02 </wgt>
<wgt id='1309'> +1.1596673e+02 </wgt>
<wgt id='1310'> +1.1614551e+02 </wgt>
<wgt id='1311'> +1.1599912e+02 </wgt>
<wgt id='1312'> +1.1586358e+02 </wgt>
<wgt id='1313'> +1.1590235e+02 </wgt>
<wgt id='1314'> +1.1594125e+02 </wgt>
<wgt id='1315'> +1.1587951e+02 </wgt>
<wgt id='1316'> +1.1566970e+02 </wgt>
<wgt id='1317'> +1.1603528e+02 </wgt>
<wgt id='1318'> +1.1597638e+02 </wgt>
<wgt id='1319'> +1.1611489e+02 </wgt>
<wgt id='1320'> +1.1597255e+02 </wgt>
<wgt id='1321'> +1.1610540e+02 </wgt>
<wgt id='1322'> +1.1576436e+02 </wgt>
<wgt id='1323'> +1.1575201e+02 </wgt>
<wgt id='1324'> +1.1585361e+02 </wgt>
<wgt id='1325'> +1.1573511e+02 </wgt>
<wgt id='1326'> +1.1596158e+02 </wgt>
<wgt id='1327'> +1.1608992e+02 </wgt>
<wgt id='1328'> +1.1603742e+02 </wgt>
<wgt id='1329'> +1.1587082e+02 </wgt>
<wgt id='1330'> +1.1587101e+02 </wgt>
<wgt id='1331'> +1.1594504e+02 </wgt>
<wgt id='1332'> +1.1586570e+02 </wgt>
<wgt id='1333'> +1.1591546e+02 </wgt>
<wgt id='1334'> +1.1598259e+02 </wgt>
<wgt id='1335'> +1.1585425e+02 </wgt>
<wgt id='1336'> +1.1595503e+02 </wgt>
<wgt id='1337'> +1.1585940e+02 </wgt>
<wgt id='1338'> +1.1606648e+02 </wgt>
<wgt id='1339'> +1.1597185e+02 </wgt>
<wgt id='1340'> +1.1607779e+02 </wgt>
<wgt id='1341'> +1.1583166e+02 </wgt>
<wgt id='1342'> +1.1594291e+02 </wgt>
<wgt id='1343'> +1.1601130e+02 </wgt>
<wgt id='1344'> +1.1595376e+02 </wgt>
<wgt id='1345'> +1.1608517e+02 </wgt>
<wgt id='1346'> +1.1587033e+02 </wgt>
<wgt id='1347'> +1.1602694e+02 </wgt>
<wgt id='1348'> +1.1581407e+02 </wgt>
<wgt id='1349'> +1.1586985e+02 </wgt>
<wgt id='1350'> +1.1595260e+02 </wgt>
<wgt id='1351'> +1.1594033e+02 </wgt>
<wgt id='1352'> +1.1579785e+02 </wgt>
<wgt id='1353'> +1.1321377e+02 </wgt>
<wgt id='1354'> +1.1868281e+02 </wgt>
<wgt id='1355'> +1.0224311e+02 </wgt>
<wgt id='1356'> +1.0454138e+02 </wgt>
<wgt id='1357'> +1.0801452e+02 </wgt>
<wgt id='1358'> +1.1100565e+02 </wgt>
<wgt id='1359'> +1.1468815e+02 </wgt>
<wgt id='1360'> +1.1706475e+02 </wgt>
<wgt id='1361'> +1.2118196e+02 </wgt>
<wgt id='1362'> +1.2333417e+02 </wgt>
<wgt id='1363'> +1.1425377e+02 </wgt>
<wgt id='1364'> +1.1445410e+02 </wgt>
<wgt id='1365'> +1.1401943e+02 </wgt>
<wgt id='1366'> +1.1443027e+02 </wgt>
<wgt id='1367'> +1.1405900e+02 </wgt>
<wgt id='1368'> +1.1442220e+02 </wgt>
<wgt id='1369'> +1.1430931e+02 </wgt>
<wgt id='1370'> +1.1450933e+02 </wgt>
<wgt id='1371'> +1.1414458e+02 </wgt>
<wgt id='1372'> +1.1456902e+02 </wgt>
<wgt id='1373'> +1.1383857e+02 </wgt>
<wgt id='1374'> +1.1420810e+02 </wgt>
<wgt id='1375'> +1.1411917e+02 </wgt>
<wgt id='1376'> +1.1436778e+02 </wgt>
<wgt id='1377'> +1.1495052e+02 </wgt>
<wgt id='1378'> +1.1351380e+02 </wgt>
<wgt id='1379'> +1.1462117e+02 </wgt>
<wgt id='1380'> +1.1409872e+02 </wgt>
<wgt id='1381'> +1.1438926e+02 </wgt>
<wgt id='1382'> +1.1388364e+02 </wgt>
<wgt id='1383'> +1.1337123e+02 </wgt>
<wgt id='1384'> +1.1497894e+02 </wgt>
<wgt id='1385'> +1.1447027e+02 </wgt>
<wgt id='1386'> +1.1462847e+02 </wgt>
<wgt id='1387'> +1.1425323e+02 </wgt>
<wgt id='1388'> +1.1350998e+02 </wgt>
<wgt id='1389'> +1.1412478e+02 </wgt>
<wgt id='1390'> +1.1430366e+02 </wgt>
<wgt id='1391'> +1.1473083e+02 </wgt>
<wgt id='1392'> +1.1474741e+02 </wgt>
<wgt id='1393'> +1.1242781e+02 </wgt>
<wgt id='1394'> +1.1427315e+02 </wgt>
<wgt id='1395'> +1.1391304e+02 </wgt>
<wgt id='1396'> +1.1489438e+02 </wgt>
<wgt id='1397'> +1.1430799e+02 </wgt>
<wgt id='1398'> +1.1434561e+02 </wgt>
<wgt id='1399'> +1.1425730e+02 </wgt>
<wgt id='1400'> +1.1373239e+02 </wgt>
<wgt id='1401'> +1.1415188e+02 </wgt>
<wgt id='1402'> +1.1421041e+02 </wgt>
<wgt id='1403'> +1.1425742e+02 </wgt>
<wgt id='1404'> +1.1408644e+02 </wgt>
<wgt id='1405'> +1.1435092e+02 </wgt>
<wgt id='1406'> +1.1392471e+02 </wgt>
<wgt id='1407'> +1.1425423e+02 </wgt>
<wgt id='1408'> +1.1443843e+02 </wgt>
<wgt id='1409'> +1.1415152e+02 </wgt>
<wgt id='1410'> +1.1382415e+02 </wgt>
<wgt id='1411'> +1.1419349e+02 </wgt>
<wgt id='1412'> +1.1452366e+02 </wgt>
<wgt id='1413'> +1.1412425e+02 </wgt>
<wgt id='1414'> +1.1466950e+02 </wgt>
<wgt id='1415'> +1.1444486e+02 </wgt>
<wgt id='1416'> +1.1430449e+02 </wgt>
<wgt id='1417'> +1.1418921e+02 </wgt>
<wgt id='1418'> +1.1385468e+02 </wgt>
<wgt id='1419'> +1.1477375e+02 </wgt>
<wgt id='1420'> +1.1403066e+02 </wgt>
<wgt id='1421'> +1.1430195e+02 </wgt>
<wgt id='1422'> +1.1454773e+02 </wgt>
<wgt id='1423'> +1.1421948e+02 </wgt>
<wgt id='1424'> +1.1421373e+02 </wgt>
<wgt id='1425'> +1.1422574e+02 </wgt>
<wgt id='1426'> +1.1430707e+02 </wgt>
<wgt id='1427'> +1.1410319e+02 </wgt>
<wgt id='1428'> +1.1428609e+02 </wgt>
<wgt id='1429'> +1.1439292e+02 </wgt>
<wgt id='1430'> +1.1422960e+02 </wgt>
<wgt id='1431'> +1.1425979e+02 </wgt>
<wgt id='1432'> +1.1419167e+02 </wgt>
<wgt id='1433'> +1.1403040e+02 </wgt>
<wgt id='1434'> +1.1419417e+02 </wgt>
<wgt id='1435'> +1.1420073e+02 </wgt>
<wgt id='1436'> +1.1412024e+02 </wgt>
<wgt id='1437'> +1.1422728e+02 </wgt>
<wgt id='1438'> +1.1415722e+02 </wgt>
<wgt id='1439'> +1.1423301e+02 </wgt>
<wgt id='1440'> +1.1438613e+02 </wgt>
<wgt id='1441'> +1.1435297e+02 </wgt>
<wgt id='1442'> +1.1395218e+02 </wgt>
<wgt id='1443'> +1.1412298e+02 </wgt>
<wgt id='1444'> +1.1413213e+02 </wgt>
<wgt id='1445'> +1.1423190e+02 </wgt>
<wgt id='1446'> +1.1408979e+02 </wgt>
<wgt id='1447'> +1.1424752e+02 </wgt>
<wgt id='1448'> +1.1437046e+02 </wgt>
<wgt id='1449'> +1.1425798e+02 </wgt>
<wgt id='1450'> +1.1423064e+02 </wgt>
<wgt id='1451'> +1.1431306e+02 </wgt>
<wgt id='1452'> +1.1425451e+02 </wgt>
<wgt id='1453'> +1.1415675e+02 </wgt>
<wgt id='1454'> +1.1408317e+02 </wgt>
<wgt id='1455'> +1.1419268e+02 </wgt>
<wgt id='1456'> +1.1430316e+02 </wgt>
<wgt id='1457'> +1.1438267e+02 </wgt>
<wgt id='1458'> +1.1409858e+02 </wgt>
<wgt id='1459'> +1.1436275e+02 </wgt>
<wgt id='1460'> +1.1434866e+02 </wgt>
<wgt id='1461'> +1.1423462e+02 </wgt>
<wgt id='1462'> +1.1418552e+02 </wgt>
<wgt id='1463'> +1.1416496e+02 </wgt>
<wgt id='1464'> +1.1158414e+02 </wgt>
<wgt id='1465'> +1.1715373e+02 </wgt>
<wgt id='1466'> +1.1312685e+02 </wgt>
<wgt id='1467'> +1.1339722e+02 </wgt>
<wgt id='1468'> +1.1295275e+02 </wgt>
<wgt id='1469'> +1.1282588e+02 </wgt>
<wgt id='1470'> +1.1307455e+02 </wgt>
<wgt id='1471'> +1.1293238e+02 </wgt>
<wgt id='1472'> +1.1284279e+02 </wgt>
<wgt id='1473'> +1.1254027e+02 </wgt>
<wgt id='1474'> +1.1388967e+02 </wgt>
<wgt id='1475'> +1.1425215e+02 </wgt>
<wgt id='1476'> +1.1235747e+02 </wgt>
<wgt id='1477'> +1.1351481e+02 </wgt>
<wgt id='1478'> +1.1190334e+02 </wgt>
<wgt id='1479'> +1.1273133e+02 </wgt>
<wgt id='1480'> +1.1271644e+02 </wgt>
<wgt id='1481'> +1.1331966e+02 </wgt>
<wgt id='1482'> +1.1233893e+02 </wgt>
<wgt id='1483'> +1.1278993e+02 </wgt>
<wgt id='1484'> +1.1330856e+02 </wgt>
<wgt id='1485'> +1.1302018e+02 </wgt>
<wgt id='1486'> +1.1305008e+02 </wgt>
<wgt id='1487'> +1.1260394e+02 </wgt>
<wgt id='1488'> +1.1341543e+02 </wgt>
<wgt id='1489'> +1.1277711e+02 </wgt>
<wgt id='1490'> +1.1344289e+02 </wgt>
<wgt id='1491'> +1.1244270e+02 </wgt>
<wgt id='1492'> +1.1369988e+02 </wgt>
<wgt id='1493'> +1.1265105e+02 </wgt>
<wgt id='1494'> +1.1389352e+02 </wgt>
<wgt id='1495'> +1.1240954e+02 </wgt>
<wgt id='1496'> +1.1355554e+02 </wgt>
<wgt id='1497'> +1.1332446e+02 </wgt>
<wgt id='1498'> +1.1276804e+02 </wgt>
<wgt id='1499'> +1.1306531e+02 </wgt>
<wgt id='1500'> +1.1314762e+02 </wgt>
<wgt id='1501'> +1.1547648e+02 </wgt>
<wgt id='1502'> +1.1126402e+02 </wgt>
<wgt id='1503'> +1.1590312e+02 </wgt>
<wgt id='1504'> +1.0999111e+02 </wgt>
<wgt id='1505'> +1.1559910e+02 </wgt>
<wgt id='1506'> +1.1062598e+02 </wgt>
<wgt id='1507'> +1.1323638e+02 </wgt>
<wgt id='1508'> +1.1319547e+02 </wgt>
<wgt id='1509'> +1.1300874e+02 </wgt>
<wgt id='1510'> +1.1254743e+02 </wgt>
<wgt id='1511'> +1.1321443e+02 </wgt>
<wgt id='1512'> +1.1330803e+02 </wgt>
<wgt id='1513'> +1.1146243e+02 </wgt>
<wgt id='1514'> +1.1405609e+02 </wgt>
<wgt id='1515'> +1.1271736e+02 </wgt>
<wgt id='1516'> +1.1203097e+02 </wgt>
<wgt id='1517'> +1.1326878e+02 </wgt>
<wgt id='1518'> +1.1357476e+02 </wgt>
<wgt id='1519'> +1.1267722e+02 </wgt>
<wgt id='1520'> +1.1217036e+02 </wgt>
<wgt id='1521'> +1.1120672e+02 </wgt>
<wgt id='1522'> +1.1588105e+02 </wgt>
<wgt id='1523'> +1.1111383e+02 </wgt>
<wgt id='1524'> +1.1507690e+02 </wgt>
<wgt id='1525'> +1.1198885e+02 </wgt>
<wgt id='1526'> +1.1235072e+02 </wgt>
<wgt id='1527'> +1.1230712e+02 </wgt>
<wgt id='1528'> +1.1166465e+02 </wgt>
<wgt id='1529'> +1.1215250e+02 </wgt>
<wgt id='1530'> +1.1105784e+02 </wgt>
<wgt id='1531'> +1.1153555e+02 </wgt>
<wgt id='1532'> +1.1191833e+02 </wgt>
<wgt id='1533'> +1.1292183e+02 </wgt>
<wgt id='1534'> +1.1094553e+02 </wgt>
<wgt id='1535'> +1.1223010e+02 </wgt>
<wgt id='1536'> +1.1309821e+02 </wgt>
<wgt id='1537'> +1.1101136e+02 </wgt>
<wgt id='1538'> +1.1026797e+02 </wgt>
<wgt id='1539'> +1.1267342e+02 </wgt>
<wgt id='1540'> +1.1339422e+02 </wgt>
<wgt id='1541'> +1.0983738e+02 </wgt>
<wgt id='1542'> +1.1475891e+02 </wgt>
<wgt id='1543'> +1.0885571e+02 </wgt>
<wgt id='1544'> +1.1180430e+02 </wgt>
<wgt id='1545'> +1.1198478e+02 </wgt>
<wgt id='1546'> +1.1205725e+02 </wgt>
<wgt id='1547'> +1.1139764e+02 </wgt>
<wgt id='1548'> +1.1126805e+02 </wgt>
<wgt id='1549'> +1.1269489e+02 </wgt>
<wgt id='1550'> +1.1208545e+02 </wgt>
<wgt id='1551'> +1.1190366e+02 </wgt>
<wgt id='1552'> +1.1269539e+02 </wgt>
<wgt id='1553'> +1.1097202e+02 </wgt>
<wgt id='1554'> +1.1150414e+02 </wgt>
<wgt id='1555'> +1.1215112e+02 </wgt>
<wgt id='1556'> +1.1143899e+02 </wgt>
<wgt id='1557'> +1.1267758e+02 </wgt>
<wgt id='1558'> +1.1229645e+02 </wgt>
<wgt id='1559'> +1.1127063e+02 </wgt>
<wgt id='1560'> +1.1115225e+02 </wgt>
<wgt id='1561'> +1.1283376e+02 </wgt>
<wgt id='1562'> +1.1221471e+02 </wgt>
<wgt id='1563'> +1.1142574e+02 </wgt>
<wgt id='1564'> +1.1058367e+02 </wgt>
<wgt id='1565'> +1.1256387e+02 </wgt>
<wgt id='1566'> +1.1245616e+02 </wgt>
<wgt id='1567'> +1.1158024e+02 </wgt>
<wgt id='1568'> +1.1162720e+02 </wgt>
<wgt id='1569'> +1.1220646e+02 </wgt>
<wgt id='1570'> +1.1140533e+02 </wgt>
<wgt id='1571'> +1.1134012e+02 </wgt>
<wgt id='1572'> +1.1081592e+02 </wgt>
<wgt id='1573'> +1.1236666e+02 </wgt>
<wgt id='1574'> +1.1099173e+02 </wgt>
<wgt id='1575'> +1.1244930e+02 </wgt>
<wgt id='1576'> +1.1231642e+02 </wgt>
<wgt id='1577'> +1.1225410e+02 </wgt>
<wgt id='1578'> +1.1159595e+02 </wgt>
<wgt id='1579'> +1.1158567e+02 </wgt>
<wgt id='1580'> +1.1067108e+02 </wgt>
<wgt id='1581'> +1.1405661e+02 </wgt>
<wgt id='1582'> +1.0993158e+02 </wgt>
<wgt id='1583'> +1.1382794e+02 </wgt>
<wgt id='1584'> +1.0930774e+02 </wgt>
<wgt id='1585'> +1.0912437e+02 </wgt>
<wgt id='1586'> +1.0885117e+02 </wgt>
<wgt id='1587'> +1.0941947e+02 </wgt>
<wgt id='1588'> +1.0873493e+02 </wgt>
<wgt id='1589'> +1.0938666e+02 </wgt>
<wgt id='1590'> +1.0903604e+02 </wgt>
<wgt id='1591'> +1.0920838e+02 </wgt>
<wgt id='1592'> +1.0986222e+02 </wgt>
<wgt id='1593'> +1.0830342e+02 </wgt>
<wgt id='1594'> +1.0843644e+02 </wgt>
<wgt id='1595'> +1.0979261e+02 </wgt>
<wgt id='1596'> +1.0886408e+02 </wgt>
<wgt id='1597'> +1.0969210e+02 </wgt>
<wgt id='1598'> +1.0889597e+02 </wgt>
<wgt id='1599'> +1.0953231e+02 </wgt>
<wgt id='1600'> +1.0912876e+02 </wgt>
<wgt id='1601'> +1.0912137e+02 </wgt>
<wgt id='1602'> +1.0960221e+02 </wgt>
<wgt id='1603'> +1.0856055e+02 </wgt>
<wgt id='1604'> +1.0885043e+02 </wgt>
<wgt id='1605'> +1.0935807e+02 </wgt>
<wgt id='1606'> +1.1001049e+02 </wgt>
<wgt id='1607'> +1.0797596e+02 </wgt>
<wgt id='1608'> +1.1008608e+02 </wgt>
<wgt id='1609'> +1.0843063e+02 </wgt>
<wgt id='1610'> +1.0916406e+02 </wgt>
<wgt id='1611'> +1.0903466e+02 </wgt>
<wgt id='1612'> +1.0933327e+02 </wgt>
<wgt id='1613'> +1.0903660e+02 </wgt>
<wgt id='1614'> +1.0972956e+02 </wgt>
<wgt id='1615'> +1.0840323e+02 </wgt>
<wgt id='1616'> +1.1019937e+02 </wgt>
<wgt id='1617'> +1.0788890e+02 </wgt>
<wgt id='1618'> +1.0852764e+02 </wgt>
<wgt id='1619'> +1.0967304e+02 </wgt>
<wgt id='1620'> +1.0897115e+02 </wgt>
<wgt id='1621'> +1.0916090e+02 </wgt>
<wgt id='1622'> +1.0888123e+02 </wgt>
<wgt id='1623'> +1.0935675e+02 </wgt>
<wgt id='1624'> +1.0913720e+02 </wgt>
<wgt id='1625'> +1.0906674e+02 </wgt>
<wgt id='1626'> +1.0773364e+02 </wgt>
<wgt id='1627'> +1.1042903e+02 </wgt>
<wgt id='1628'> +1.0942320e+02 </wgt>
<wgt id='1629'> +1.0872271e+02 </wgt>
<wgt id='1630'> +1.0870414e+02 </wgt>
<wgt id='1631'> +1.1016382e+02 </wgt>
<wgt id='1632'> +1.0924052e+02 </wgt>
<wgt id='1633'> +1.0847484e+02 </wgt>
<wgt id='1634'> +1.0894807e+02 </wgt>
<wgt id='1635'> +1.0928763e+02 </wgt>
<wgt id='1636'> +1.1302711e+02 </wgt>
<wgt id='1637'> +1.1273737e+02 </wgt>
<wgt id='1638'> +1.1340163e+02 </wgt>
<wgt id='1639'> +1.1304002e+02 </wgt>
<wgt id='1640'> +1.1301777e+02 </wgt>
<wgt id='1641'> +1.1246984e+02 </wgt>
<wgt id='1642'> +1.1325432e+02 </wgt>
<wgt id='1643'> +1.1374144e+02 </wgt>
<wgt id='1644'> +1.1231160e+02 </wgt>
<wgt id='1645'> +1.1261655e+02 </wgt>
<wgt id='1646'> +1.1342307e+02 </wgt>
<wgt id='1647'> +1.1417585e+02 </wgt>
<wgt id='1648'> +1.1253435e+02 </wgt>
<wgt id='1649'> +1.1305763e+02 </wgt>
<wgt id='1650'> +1.1299016e+02 </wgt>
<wgt id='1651'> +1.1269466e+02 </wgt>
<wgt id='1652'> +1.1338585e+02 </wgt>
<wgt id='1653'> +1.1355290e+02 </wgt>
<wgt id='1654'> +1.1272566e+02 </wgt>
<wgt id='1655'> +1.1318231e+02 </wgt>
<wgt id='1656'> +1.1281636e+02 </wgt>
<wgt id='1657'> +1.1234015e+02 </wgt>
<wgt id='1658'> +1.1350997e+02 </wgt>
<wgt id='1659'> +1.1159690e+02 </wgt>
<wgt id='1660'> +1.1441564e+02 </wgt>
<wgt id='1661'> +1.1264469e+02 </wgt>
<wgt id='1662'> +1.1391732e+02 </wgt>
<wgt id='1663'> +1.1304106e+02 </wgt>
<wgt id='1664'> +1.1305856e+02 </wgt>
<wgt id='1665'> +1.1250056e+02 </wgt>
<wgt id='1666'> +1.1448036e+02 </wgt>
<wgt id='1667'> +1.1351096e+02 </wgt>
<wgt id='1668'> +1.1189506e+02 </wgt>
<wgt id='1669'> +1.1286923e+02 </wgt>
<wgt id='1670'> +1.1313774e+02 </wgt>
<wgt id='1671'> +1.1350799e+02 </wgt>
<wgt id='1672'> +1.1264905e+02 </wgt>
<wgt id='1673'> +1.1304124e+02 </wgt>
<wgt id='1674'> +1.1301967e+02 </wgt>
<wgt id='1675'> +1.1311882e+02 </wgt>
<wgt id='1676'> +1.1292062e+02 </wgt>
<wgt id='1677'> +1.1403829e+02 </wgt>
<wgt id='1678'> +1.1088234e+02 </wgt>
<wgt id='1679'> +1.1320917e+02 </wgt>
<wgt id='1680'> +1.1243209e+02 </wgt>
<wgt id='1681'> +1.1236342e+02 </wgt>
<wgt id='1682'> +1.1333329e+02 </wgt>
<wgt id='1683'> +1.1392631e+02 </wgt>
<wgt id='1684'> +1.1259864e+02 </wgt>
<wgt id='1685'> +1.1284541e+02 </wgt>
<wgt id='1686'> +1.1287563e+02 </wgt>
<wgt id='1687'> +1.2030787e+02 </wgt>
<wgt id='1688'> +1.1772655e+02 </wgt>
<wgt id='1689'> +1.1771664e+02 </wgt>
<wgt id='1690'> +1.1760721e+02 </wgt>
<wgt id='1691'> +1.1792538e+02 </wgt>
<wgt id='1692'> +1.1772781e+02 </wgt>
<wgt id='1693'> +1.1781405e+02 </wgt>
<wgt id='1694'> +1.1760350e+02 </wgt>
<wgt id='1695'> +1.1795958e+02 </wgt>
<wgt id='1696'> +1.1699634e+02 </wgt>
<wgt id='1697'> +1.1745051e+02 </wgt>
<wgt id='1698'> +1.1776635e+02 </wgt>
<wgt id='1699'> +1.1759733e+02 </wgt>
<wgt id='1700'> +1.1800025e+02 </wgt>
<wgt id='1701'> +1.1783683e+02 </wgt>
<wgt id='1702'> +1.1750781e+02 </wgt>
<wgt id='1703'> +1.1779416e+02 </wgt>
<wgt id='1704'> +1.1750113e+02 </wgt>
<wgt id='1705'> +1.1752202e+02 </wgt>
<wgt id='1706'> +1.1737483e+02 </wgt>
<wgt id='1707'> +1.1774864e+02 </wgt>
<wgt id='1708'> +1.1720708e+02 </wgt>
<wgt id='1709'> +1.1741573e+02 </wgt>
<wgt id='1710'> +1.1773891e+02 </wgt>
<wgt id='1711'> +1.1752565e+02 </wgt>
<wgt id='1712'> +1.1791991e+02 </wgt>
<wgt id='1713'> +1.1780341e+02 </wgt>
<wgt id='1714'> +1.1748333e+02 </wgt>
<wgt id='1715'> +1.1736510e+02 </wgt>
<wgt id='1716'> +1.1822619e+02 </wgt>
<wgt id='1717'> +1.1704982e+02 </wgt>
<wgt id='1718'> +1.1110584e+02 </wgt>
<wgt id='1719'> +1.1086114e+02 </wgt>
<wgt id='1720'> +1.1054210e+02 </wgt>
<wgt id='1721'> +1.1190417e+02 </wgt>
<wgt id='1722'> +1.1084197e+02 </wgt>
<wgt id='1723'> +1.1135999e+02 </wgt>
<wgt id='1724'> +1.1054393e+02 </wgt>
<wgt id='1725'> +1.1126554e+02 </wgt>
<wgt id='1726'> +1.1083909e+02 </wgt>
<wgt id='1727'> +1.1112913e+02 </wgt>
<wgt id='1728'> +1.1107921e+02 </wgt>
<wgt id='1729'> +1.1036390e+02 </wgt>
<wgt id='1730'> +1.1093306e+02 </wgt>
<wgt id='1731'> +1.1166430e+02 </wgt>
<wgt id='1732'> +1.1057034e+02 </wgt>
<wgt id='1733'> +1.1104969e+02 </wgt>
<wgt id='1734'> +1.1029220e+02 </wgt>
<wgt id='1735'> +1.1119212e+02 </wgt>
<wgt id='1736'> +1.1238624e+02 </wgt>
<wgt id='1737'> +1.1052149e+02 </wgt>
<wgt id='1738'> +1.1119855e+02 </wgt>
<wgt id='1739'> +1.1147803e+02 </wgt>
<wgt id='1740'> +1.1061556e+02 </wgt>
<wgt id='1741'> +1.1221551e+02 </wgt>
<wgt id='1742'> +1.1094544e+02 </wgt>
<wgt id='1743'> +1.1167756e+02 </wgt>
<wgt id='1744'> +1.1119828e+02 </wgt>
<wgt id='1745'> +1.1078295e+02 </wgt>
<wgt id='1746'> +1.1174635e+02 </wgt>
<wgt id='1747'> +1.1116399e+02 </wgt>
<wgt id='1748'> +1.1121829e+02 </wgt>
<wgt id='1749'> +1.1107543e+02 </wgt>
<wgt id='1750'> +1.1084713e+02 </wgt>
<wgt id='1751'> +1.1124444e+02 </wgt>
<wgt id='1752'> +1.1150440e+02 </wgt>
<wgt id='1753'> +1.1156639e+02 </wgt>
<wgt id='1754'> +1.1085948e+02 </wgt>
<wgt id='1755'> +1.1128809e+02 </wgt>
<wgt id='1756'> +1.1114839e+02 </wgt>
<wgt id='1757'> +1.1148067e+02 </wgt>
<wgt id='1758'> +1.1117074e+02 </wgt>
<wgt id='1759'> +1.1147617e+02 </wgt>
<wgt id='1760'> +1.1147013e+02 </wgt>
<wgt id='1761'> +1.1087151e+02 </wgt>
<wgt id='1762'> +1.1102662e+02 </wgt>
<wgt id='1763'> +1.1145787e+02 </wgt>
<wgt id='1764'> +1.1169862e+02 </wgt>
<wgt id='1765'> +1.1107084e+02 </wgt>
<wgt id='1766'> +1.1080868e+02 </wgt>
<wgt id='1767'> +1.1125250e+02 </wgt>
<wgt id='1768'> +1.1106288e+02 </wgt>
<wgt id='1769'> +1.1128109e+02 </wgt>
<wgt id='1770'> +1.1120600e+02 </wgt>
<wgt id='1771'> +1.1083801e+02 </wgt>
<wgt id='1772'> +1.1093991e+02 </wgt>
<wgt id='1773'> +1.1130069e+02 </wgt>
<wgt id='1774'> +1.1088683e+02 </wgt>
<wgt id='1775'> +1.1108635e+02 </wgt>
<wgt id='1776'> +1.1112547e+02 </wgt>
<wgt id='1777'> +1.1106377e+02 </wgt>
<wgt id='1778'> +1.1116859e+02 </wgt>
<wgt id='1779'> +1.1132507e+02 </wgt>
<wgt id='1780'> +1.1106241e+02 </wgt>
<wgt id='1781'> +1.1097153e+02 </wgt>
<wgt id='1782'> +1.1123310e+02 </wgt>
<wgt id='1783'> +1.1104144e+02 </wgt>
<wgt id='1784'> +1.1106000e+02 </wgt>
<wgt id='1785'> +1.1109562e+02 </wgt>
<wgt id='1786'> +1.1113060e+02 </wgt>
<wgt id='1787'> +1.1114783e+02 </wgt>
<wgt id='1788'> +1.1114744e+02 </wgt>
<wgt id='1789'> +1.1093684e+02 </wgt>
<wgt id='1790'> +1.1096454e+02 </wgt>
<wgt id='1791'> +1.1100995e+02 </wgt>
<wgt id='1792'> +1.1115215e+02 </wgt>
<wgt id='1793'> +1.1101462e+02 </wgt>
<wgt id='1794'> +1.1104596e+02 </wgt>
<wgt id='1795'> +1.1107628e+02 </wgt>
<wgt id='1796'> +1.1114463e+02 </wgt>
<wgt id='1797'> +1.1112657e+02 </wgt>
<wgt id='1798'> +1.1103683e+02 </wgt>
<wgt id='1799'> +1.1107743e+02 </wgt>
<wgt id='1800'> +1.1105575e+02 </wgt>
<wgt id='1801'> +1.1111783e+02 </wgt>
<wgt id='1802'> +1.1113507e+02 </wgt>
<wgt id='1803'> +1.1107993e+02 </wgt>
<wgt id='1804'> +1.1114727e+02 </wgt>
<wgt id='1805'> +1.1104199e+02 </wgt>
<wgt id='1806'> +1.1107418e+02 </wgt>
<wgt id='1807'> +1.1110242e+02 </wgt>
<wgt id='1808'> +1.1109150e+02 </wgt>
<wgt id='1809'> +1.1106176e+02 </wgt>
<wgt id='1810'> +1.1109216e+02 </wgt>
<wgt id='1811'> +1.1110993e+02 </wgt>
<wgt id='1812'> +1.1111478e+02 </wgt>
<wgt id='1813'> +1.1111671e+02 </wgt>
<wgt id='1814'> +1.1114632e+02 </wgt>
<wgt id='1815'> +1.1112027e+02 </wgt>
<wgt id='1816'> +1.1111739e+02 </wgt>
<wgt id='1817'> +1.1107942e+02 </wgt>
<wgt id='1818'> +1.1108393e+02 </wgt>
<wgt id='1819'> +1.0921644e+02 </wgt>
<wgt id='1820'> +1.1275443e+02 </wgt>
<wgt id='1821'> +1.1323196e+02 </wgt>
<wgt id='1822'> +1.1332353e+02 </wgt>
<wgt id='1823'> +1.1308558e+02 </wgt>
<wgt id='1824'> +1.1326539e+02 </wgt>
<wgt id='1825'> +1.1378950e+02 </wgt>
<wgt id='1826'> +1.1372543e+02 </wgt>
<wgt id='1827'> +1.1357108e+02 </wgt>
<wgt id='1828'> +1.1358608e+02 </wgt>
<wgt id='1829'> +1.1331772e+02 </wgt>
<wgt id='1830'> +1.1324507e+02 </wgt>
<wgt id='1831'> +1.1301006e+02 </wgt>
<wgt id='1832'> +1.1412941e+02 </wgt>
<wgt id='1833'> +1.1329124e+02 </wgt>
<wgt id='1834'> +1.1347737e+02 </wgt>
<wgt id='1835'> +1.1308669e+02 </wgt>
<wgt id='1836'> +1.1361961e+02 </wgt>
<wgt id='1837'> +1.1317215e+02 </wgt>
<wgt id='1838'> +1.1307457e+02 </wgt>
<wgt id='1839'> +1.1387720e+02 </wgt>
<wgt id='1840'> +1.1207941e+02 </wgt>
<wgt id='1841'> +1.1321112e+02 </wgt>
<wgt id='1842'> +1.1374205e+02 </wgt>
<wgt id='1843'> +1.1215977e+02 </wgt>
<wgt id='1844'> +1.1397855e+02 </wgt>
<wgt id='1845'> +1.1419216e+02 </wgt>
<wgt id='1846'> +1.1309410e+02 </wgt>
<wgt id='1847'> +1.1311129e+02 </wgt>
<wgt id='1848'> +1.1345384e+02 </wgt>
<wgt id='1849'> +1.1298075e+02 </wgt>
<wgt id='1850'> +1.1283148e+02 </wgt>
<wgt id='1851'> +1.1306374e+02 </wgt>
<wgt id='1852'> +1.1361091e+02 </wgt>
<wgt id='1853'> +1.1335512e+02 </wgt>
<wgt id='1854'> +1.1330880e+02 </wgt>
<wgt id='1855'> +1.1346443e+02 </wgt>
<wgt id='1856'> +1.1264041e+02 </wgt>
<wgt id='1857'> +1.1400442e+02 </wgt>
<wgt id='1858'> +1.1311590e+02 </wgt>
<wgt id='1859'> +1.1330798e+02 </wgt>
<wgt id='1860'> +1.1312214e+02 </wgt>
<wgt id='1861'> +1.1263455e+02 </wgt>
<wgt id='1862'> +1.1323687e+02 </wgt>
<wgt id='1863'> +1.1321621e+02 </wgt>
<wgt id='1864'> +1.1299640e+02 </wgt>
<wgt id='1865'> +1.1314267e+02 </wgt>
<wgt id='1866'> +1.1339729e+02 </wgt>
<wgt id='1867'> +1.1276885e+02 </wgt>
<wgt id='1868'> +1.1285345e+02 </wgt>
<wgt id='1869'> +1.1301828e+02 </wgt>
<wgt id='1870'> +1.1310513e+02 </wgt>
<wgt id='1871'> +1.1311345e+02 </wgt>
<wgt id='1872'> +1.1339866e+02 </wgt>
<wgt id='1873'> +1.1375005e+02 </wgt>
<wgt id='1874'> +1.1325952e+02 </wgt>
<wgt id='1875'> +1.1317160e+02 </wgt>
<wgt id='1876'> +1.1326602e+02 </wgt>
<wgt id='1877'> +1.1348385e+02 </wgt>
<wgt id='1878'> +1.1314151e+02 </wgt>
<wgt id='1879'> +1.1318375e+02 </wgt>
<wgt id='1880'> +1.1315645e+02 </wgt>
<wgt id='1881'> +1.1324374e+02 </wgt>
<wgt id='1882'> +1.1319259e+02 </wgt>
<wgt id='1883'> +1.1336834e+02 </wgt>
<wgt id='1884'> +1.1317857e+02 </wgt>
<wgt id='1885'> +1.1334910e+02 </wgt>
<wgt id='1886'> +1.1325596e+02 </wgt>
<wgt id='1887'> +1.1316228e+02 </wgt>
<wgt id='1888'> +1.1322260e+02 </wgt>
<wgt id='1889'> +1.1315218e+02 </wgt>
<wgt id='1890'> +1.1348611e+02 </wgt>
<wgt id='1891'> +1.1329939e+02 </wgt>
<wgt id='1892'> +1.1322939e+02 </wgt>
<wgt id='1893'> +1.1327221e+02 </wgt>
<wgt id='1894'> +1.1320332e+02 </wgt>
<wgt id='1895'> +1.1326787e+02 </wgt>
<wgt id='1896'> +1.1321952e+02 </wgt>
<wgt id='1897'> +1.1314676e+02 </wgt>
<wgt id='1898'> +1.1324957e+02 </wgt>
<wgt id='1899'> +1.1328130e+02 </wgt>
<wgt id='1900'> +1.1319307e+02 </wgt>
<wgt id='1901'> +1.1321846e+02 </wgt>
<wgt id='1902'> +1.1315026e+02 </wgt>
<wgt id='1903'> +1.1323973e+02 </wgt>
<wgt id='1904'> +1.1321009e+02 </wgt>
<wgt id='1905'> +1.1320427e+02 </wgt>
<wgt id='1906'> +1.1319281e+02 </wgt>
<wgt id='1907'> +1.1323507e+02 </wgt>
<wgt id='1908'> +1.1315976e+02 </wgt>
<wgt id='1909'> +1.1324911e+02 </wgt>
<wgt id='1910'> +1.1318885e+02 </wgt>
<wgt id='1911'> +1.1326146e+02 </wgt>
<wgt id='1912'> +1.1319040e+02 </wgt>
<wgt id='1913'> +1.1317316e+02 </wgt>
<wgt id='1914'> +1.1320567e+02 </wgt>
<wgt id='1915'> +1.1327173e+02 </wgt>
<wgt id='1916'> +1.1323359e+02 </wgt>
<wgt id='1917'> +1.1320337e+02 </wgt>
<wgt id='1918'> +1.1323169e+02 </wgt>
<wgt id='1919'> +1.1320792e+02 </wgt>
<wgt id='1920'> +1.1326868e+02 </wgt>
<wgt id='1921'> +1.1323701e+02 </wgt>
<wgt id='1922'> +1.1148050e+02 </wgt>
<wgt id='1923'> +1.1494929e+02 </wgt>
<wgt id='1924'> +1.1112741e+02 </wgt>
<wgt id='1925'> +1.1099130e+02 </wgt>
<wgt id='1926'> +1.0933783e+02 </wgt>
<wgt id='1927'> +1.1109623e+02 </wgt>
<wgt id='1928'> +1.1186997e+02 </wgt>
<wgt id='1929'> +1.1093880e+02 </wgt>
<wgt id='1930'> +1.1141453e+02 </wgt>
<wgt id='1931'> +1.1098545e+02 </wgt>
<wgt id='1932'> +1.1150380e+02 </wgt>
<wgt id='1933'> +1.1131479e+02 </wgt>
<wgt id='1934'> +1.1139791e+02 </wgt>
<wgt id='1935'> +1.1065589e+02 </wgt>
<wgt id='1936'> +1.1277029e+02 </wgt>
<wgt id='1937'> +1.1112741e+02 </wgt>
<wgt id='1938'> +1.1056361e+02 </wgt>
<wgt id='1939'> +1.1127934e+02 </wgt>
<wgt id='1940'> +1.1109275e+02 </wgt>
<wgt id='1941'> +1.1090189e+02 </wgt>
<wgt id='1942'> +1.1108896e+02 </wgt>
<wgt id='1943'> +1.1135036e+02 </wgt>
<wgt id='1944'> +1.1211835e+02 </wgt>
<wgt id='1945'> +1.1088659e+02 </wgt>
<wgt id='1946'> +1.1095766e+02 </wgt>
<wgt id='1947'> +1.1114305e+02 </wgt>
<wgt id='1948'> +1.1081445e+02 </wgt>
<wgt id='1949'> +1.1124323e+02 </wgt>
<wgt id='1950'> +1.1100276e+02 </wgt>
<wgt id='1951'> +1.1087970e+02 </wgt>
<wgt id='1952'> +1.1127590e+02 </wgt>
<wgt id='1953'> +1.1107108e+02 </wgt>
<wgt id='1954'> +1.1122400e+02 </wgt>
<wgt id='1955'> +1.0921644e+02 </wgt>
<wgt id='1956'> +1.1275443e+02 </wgt>
<wgt id='1957'> +1.1323531e+02 </wgt>
<wgt id='1958'> +1.1336631e+02 </wgt>
<wgt id='1959'> +1.1402373e+02 </wgt>
<wgt id='1960'> +1.1308438e+02 </wgt>
<wgt id='1961'> +1.1233426e+02 </wgt>
<wgt id='1962'> +1.1230884e+02 </wgt>
<wgt id='1963'> +1.1326073e+02 </wgt>
<wgt id='1964'> +1.1296121e+02 </wgt>
<wgt id='1965'> +1.1279810e+02 </wgt>
<wgt id='1966'> +1.1219665e+02 </wgt>
<wgt id='1967'> +1.1304825e+02 </wgt>
<wgt id='1968'> +1.1431840e+02 </wgt>
<wgt id='1969'> +1.1341516e+02 </wgt>
<wgt id='1970'> +1.1326410e+02 </wgt>
<wgt id='1971'> +1.1327533e+02 </wgt>
<wgt id='1972'> +1.1343668e+02 </wgt>
<wgt id='1973'> +1.1301870e+02 </wgt>
<wgt id='1974'> +1.1182174e+02 </wgt>
<wgt id='1975'> +1.1316719e+02 </wgt>
<wgt id='1976'> +1.1345381e+02 </wgt>
<wgt id='1977'> +1.1285223e+02 </wgt>
<wgt id='1978'> +1.1298749e+02 </wgt>
<wgt id='1979'> +1.1347510e+02 </wgt>
<wgt id='1980'> +1.1319904e+02 </wgt>
<wgt id='1981'> +1.1330851e+02 </wgt>
<wgt id='1982'> +1.1330239e+02 </wgt>
<wgt id='1983'> +1.1279640e+02 </wgt>
<wgt id='1984'> +1.1345833e+02 </wgt>
<wgt id='1985'> +1.1361750e+02 </wgt>
<wgt id='1986'> +1.1312507e+02 </wgt>
<wgt id='1987'> +1.1446604e+02 </wgt>
<wgt id='1988'> +1.1148050e+02 </wgt>
<wgt id='1989'> +1.1494929e+02 </wgt>
<wgt id='1990'> +1.3169016e+02 </wgt>
<wgt id='1991'> +1.3185442e+02 </wgt>
<wgt id='1992'> +1.3152676e+02 </wgt>
<wgt id='1993'> +1.3138450e+02 </wgt>
<wgt id='1994'> +1.3199586e+02 </wgt>
<wgt id='1995'> +1.3139041e+02 </wgt>
<wgt id='1996'> +1.3198907e+02 </wgt>
<wgt id='1997'> +1.3170854e+02 </wgt>
<wgt id='1998'> +1.3166066e+02 </wgt>
<wgt id='1999'> +1.3288811e+02 </wgt>
<wgt id='2000'> +1.3049645e+02 </wgt>
<wgt id='2001'> +1.3200886e+02 </wgt>
<wgt id='2002'> +1.3138666e+02 </wgt>
<wgt id='2003'> +1.3205234e+02 </wgt>
<wgt id='2004'> +1.3132457e+02 </wgt>
<wgt id='2005'> +1.3141488e+02 </wgt>
<wgt id='2006'> +1.3186576e+02 </wgt>
<wgt id='2007'> +1.3154366e+02 </wgt>
<wgt id='2008'> +1.3184678e+02 </wgt>
<wgt id='2009'> +1.3096678e+02 </wgt>
<wgt id='2010'> +1.3239730e+02 </wgt>
<wgt id='2011'> +1.3195404e+02 </wgt>
<wgt id='2012'> +1.3144408e+02 </wgt>
<wgt id='2013'> +1.3021396e+02 </wgt>
<wgt id='2014'> +1.3293660e+02 </wgt>
<wgt id='2015'> +1.3132609e+02 </wgt>
<wgt id='2016'> +1.3160865e+02 </wgt>
<wgt id='2017'> +1.3032284e+02 </wgt>
<wgt id='2018'> +1.3280412e+02 </wgt>
<wgt id='2019'> +1.3169016e+02 </wgt>
<wgt id='2020'> +1.3260527e+02 </wgt>
<wgt id='2021'> +1.3047390e+02 </wgt>
<wgt id='2022'> +1.3269829e+02 </wgt>
<wgt id='2023'> +1.3088371e+02 </wgt>
<wgt id='2024'> +1.3218128e+02 </wgt>
<wgt id='2025'> +1.3118511e+02 </wgt>
<wgt id='2026'> +1.3157820e+02 </wgt>
<wgt id='2027'> +1.3189604e+02 </wgt>
<wgt id='2028'> +1.3083876e+02 </wgt>
<wgt id='2029'> +1.3262110e+02 </wgt>
<wgt id='2030'> +1.3156841e+02 </wgt>
<wgt id='2031'> +1.3267018e+02 </wgt>
<wgt id='2032'> +1.3711979e+02 </wgt>
<wgt id='2033'> +1.3197623e+02 </wgt>
<wgt id='2034'> +1.3213968e+02 </wgt>
<wgt id='2035'> +1.3185357e+02 </wgt>
<wgt id='2036'> +1.3176035e+02 </wgt>
<wgt id='2037'> +1.3223262e+02 </wgt>
<wgt id='2038'> +1.3152764e+02 </wgt>
<wgt id='2039'> +1.3246481e+02 </wgt>
<wgt id='2040'> +1.3140896e+02 </wgt>
<wgt id='2041'> +1.3257110e+02 </wgt>
<wgt id='2042'> +1.3292765e+02 </wgt>
<wgt id='2043'> +1.3106716e+02 </wgt>
<wgt id='2044'> +1.3266935e+02 </wgt>
<wgt id='2045'> +1.3132513e+02 </wgt>
<wgt id='2046'> +1.3217021e+02 </wgt>
<wgt id='2047'> +1.3181755e+02 </wgt>
<wgt id='2048'> +1.3185753e+02 </wgt>
<wgt id='2049'> +1.3204480e+02 </wgt>
<wgt id='2050'> +1.3202069e+02 </wgt>
<wgt id='2051'> +1.3196456e+02 </wgt>
<wgt id='2052'> +1.3169904e+02 </wgt>
<wgt id='2053'> +1.3229992e+02 </wgt>
<wgt id='2054'> +1.3102513e+02 </wgt>
<wgt id='2055'> +1.3297161e+02 </wgt>
<wgt id='2056'> +1.3123856e+02 </wgt>
<wgt id='2057'> +1.3235054e+02 </wgt>
<wgt id='2058'> +1.3173059e+02 </wgt>
<wgt id='2059'> +1.3176613e+02 </wgt>
<wgt id='2060'> +1.3107763e+02 </wgt>
<wgt id='2061'> +1.3267222e+02 </wgt>
<wgt id='2062'> +1.3192514e+02 </wgt>
<wgt id='2063'> +1.3339865e+02 </wgt>
<wgt id='2064'> +1.3041011e+02 </wgt>
<wgt id='2065'> +1.3377452e+02 </wgt>
<wgt id='2066'> +1.3066358e+02 </wgt>
<wgt id='2067'> +1.3135968e+02 </wgt>
<wgt id='2068'> +1.3108031e+02 </wgt>
<wgt id='2069'> +1.3179537e+02 </wgt>
<wgt id='2070'> +1.3227623e+02 </wgt>
<wgt id='2071'> +1.2973563e+02 </wgt>
<wgt id='2072'> +1.3223156e+02 </wgt>
<wgt id='2073'> +1.3000288e+02 </wgt>
<wgt id='2074'> +1.3405150e+02 </wgt>
<wgt id='2075'> +1.3183709e+02 </wgt>
<wgt id='2076'> +1.0955511e+02 </wgt>
<wgt id='2077'> +1.0952831e+02 </wgt>
<wgt id='2078'> +1.0950130e+02 </wgt>
<wgt id='2079'> +1.0947452e+02 </wgt>
<wgt id='2080'> +1.0944750e+02 </wgt>
<wgt id='2081'> +1.0942046e+02 </wgt>
<wgt id='2082'> +1.0939370e+02 </wgt>
<wgt id='2083'> +1.0936677e+02 </wgt>
<wgt id='2084'> +1.0933999e+02 </wgt>
<wgt id='2085'> +1.0931296e+02 </wgt>
<wgt id='2086'> +1.0928616e+02 </wgt>
<wgt id='2087'> +1.0925920e+02 </wgt>
<wgt id='2088'> +1.0923217e+02 </wgt>
<wgt id='2089'> +1.0920538e+02 </wgt>
<wgt id='2090'> +1.0917839e+02 </wgt>
<wgt id='2091'> +1.0915164e+02 </wgt>
<wgt id='2092'> +1.0912466e+02 </wgt>
<wgt id='2093'> +1.0909787e+02 </wgt>
<wgt id='2094'> +1.0907089e+02 </wgt>
<wgt id='2095'> +1.0904385e+02 </wgt>
<wgt id='2096'> +1.0901715e+02 </wgt>
<wgt id='2097'> +1.0899019e+02 </wgt>
<wgt id='2098'> +1.0896338e+02 </wgt>
<wgt id='2099'> +1.0893639e+02 </wgt>
<wgt id='2100'> +1.0890967e+02 </wgt>
<wgt id='2101'> +1.0888268e+02 </wgt>
<wgt id='2102'> +1.0885569e+02 </wgt>
<wgt id='2103'> +1.0882888e+02 </wgt>
<wgt id='2104'> +1.0880191e+02 </wgt>
<wgt id='2105'> +1.0877511e+02 </wgt>
<wgt id='2106'> +1.0874807e+02 </wgt>
<wgt id='2107'> +1.1172554e+02 </wgt>
<wgt id='2108'> +1.1179570e+02 </wgt>
<wgt id='2109'> +1.1157153e+02 </wgt>
<wgt id='2110'> +1.1176528e+02 </wgt>
<wgt id='2111'> +1.1227267e+02 </wgt>
<wgt id='2112'> +1.1221092e+02 </wgt>
<wgt id='2113'> +1.1207744e+02 </wgt>
<wgt id='2114'> +1.1208980e+02 </wgt>
<wgt id='2115'> +1.1181213e+02 </wgt>
<wgt id='2116'> +1.1174261e+02 </wgt>
<wgt id='2117'> +1.1150438e+02 </wgt>
<wgt id='2118'> +1.1263008e+02 </wgt>
<wgt id='2119'> +1.1179395e+02 </wgt>
<wgt id='2120'> +1.1197996e+02 </wgt>
<wgt id='2121'> +1.1157915e+02 </wgt>
<wgt id='2122'> +1.1207773e+02 </wgt>
<wgt id='2123'> +1.1168570e+02 </wgt>
<wgt id='2124'> +1.1156160e+02 </wgt>
<wgt id='2125'> +1.1235786e+02 </wgt>
<wgt id='2126'> +1.1059950e+02 </wgt>
<wgt id='2127'> +1.1172082e+02 </wgt>
<wgt id='2128'> +1.1221878e+02 </wgt>
<wgt id='2129'> +1.1066198e+02 </wgt>
<wgt id='2130'> +1.1246932e+02 </wgt>
<wgt id='2131'> +1.1266595e+02 </wgt>
<wgt id='2132'> +1.1157194e+02 </wgt>
<wgt id='2133'> +1.1159015e+02 </wgt>
<wgt id='2134'> +1.1196153e+02 </wgt>
<wgt id='2135'> +1.1148418e+02 </wgt>
<wgt id='2136'> +1.1132187e+02 </wgt>
<wgt id='2137'> +1.1155057e+02 </wgt>
<wgt id='2138'> +1.1211640e+02 </wgt>
<wgt id='2139'> +1.1184162e+02 </wgt>
<wgt id='2140'> +1.1179327e+02 </wgt>
<wgt id='2141'> +1.1195160e+02 </wgt>
<wgt id='2142'> +1.1113775e+02 </wgt>
<wgt id='2143'> +1.1248899e+02 </wgt>
<wgt id='2144'> +1.1161167e+02 </wgt>
<wgt id='2145'> +1.1179865e+02 </wgt>
<wgt id='2146'> +1.1161071e+02 </wgt>
<wgt id='2147'> +1.1113551e+02 </wgt>
<wgt id='2148'> +1.1172686e+02 </wgt>
<wgt id='2149'> +1.1170446e+02 </wgt>
<wgt id='2150'> +1.1150453e+02 </wgt>
<wgt id='2151'> +1.1163395e+02 </wgt>
<wgt id='2152'> +1.1188741e+02 </wgt>
<wgt id='2153'> +1.1127270e+02 </wgt>
<wgt id='2154'> +1.1134627e+02 </wgt>
<wgt id='2155'> +1.1151716e+02 </wgt>
<wgt id='2156'> +1.1159957e+02 </wgt>
<wgt id='2157'> +1.1161040e+02 </wgt>
<wgt id='2158'> +1.1188878e+02 </wgt>
<wgt id='2159'> +1.1223649e+02 </wgt>
<wgt id='2160'> +1.1175647e+02 </wgt>
<wgt id='2161'> +1.1166906e+02 </wgt>
<wgt id='2162'> +1.1176218e+02 </wgt>
<wgt id='2163'> +1.1196938e+02 </wgt>
<wgt id='2164'> +1.1163413e+02 </wgt>
<wgt id='2165'> +1.1168510e+02 </wgt>
<wgt id='2166'> +1.1165466e+02 </wgt>
<wgt id='2167'> +1.1173902e+02 </wgt>
<wgt id='2168'> +1.1168878e+02 </wgt>
<wgt id='2169'> +1.1185961e+02 </wgt>
<wgt id='2170'> +1.1167022e+02 </wgt>
<wgt id='2171'> +1.1184191e+02 </wgt>
<wgt id='2172'> +1.1174896e+02 </wgt>
<wgt id='2173'> +1.1165538e+02 </wgt>
<wgt id='2174'> +1.1171379e+02 </wgt>
<wgt id='2175'> +1.1164832e+02 </wgt>
<wgt id='2176'> +1.1197310e+02 </wgt>
<wgt id='2177'> +1.1179060e+02 </wgt>
<wgt id='2178'> +1.1172441e+02 </wgt>
<wgt id='2179'> +1.1176244e+02 </wgt>
<wgt id='2180'> +1.1169494e+02 </wgt>
<wgt id='2181'> +1.1176139e+02 </wgt>
<wgt id='2182'> +1.1171340e+02 </wgt>
<wgt id='2183'> +1.1164631e+02 </wgt>
<wgt id='2184'> +1.1174533e+02 </wgt>
<wgt id='2185'> +1.1177600e+02 </wgt>
<wgt id='2186'> +1.1168563e+02 </wgt>
<wgt id='2187'> +1.1170910e+02 </wgt>
<wgt id='2188'> +1.1164880e+02 </wgt>
<wgt id='2189'> +1.1173420e+02 </wgt>
<wgt id='2190'> +1.1170475e+02 </wgt>
<wgt id='2191'> +1.1169606e+02 </wgt>
<wgt id='2192'> +1.1168766e+02 </wgt>
<wgt id='2193'> +1.1173258e+02 </wgt>
<wgt id='2194'> +1.1165265e+02 </wgt>
<wgt id='2195'> +1.1174076e+02 </wgt>
<wgt id='2196'> +1.1168109e+02 </wgt>
<wgt id='2197'> +1.1175276e+02 </wgt>
<wgt id='2198'> +1.1168222e+02 </wgt>
<wgt id='2199'> +1.1166550e+02 </wgt>
<wgt id='2200'> +1.1169933e+02 </wgt>
<wgt id='2201'> +1.1176134e+02 </wgt>
<wgt id='2202'> +1.1172735e+02 </wgt>
<wgt id='2203'> +1.1169856e+02 </wgt>
<wgt id='2204'> +1.1172549e+02 </wgt>
<wgt id='2205'> +1.1170183e+02 </wgt>
<wgt id='2206'> +1.1176262e+02 </wgt>
<wgt id='2207'> +1.1173127e+02 </wgt>
<wgt id='2208'> +1.1172527e+02 </wgt>
<wgt id='2209'> +1.1172403e+02 </wgt>
<wgt id='2210'> +1.1172576e+02 </wgt>
<wgt id='2211'> +1.1172582e+02 </wgt>
<wgt id='2212'> +1.1172622e+02 </wgt>
<wgt id='2213'> +1.1172563e+02 </wgt>
<wgt id='2214'> +1.1172456e+02 </wgt>
<wgt id='2215'> +1.1223613e+02 </wgt>
<wgt id='2216'> +1.0782320e+02 </wgt>
<wgt id='2217'> +1.0965603e+02 </wgt>
<wgt id='2218'> +1.1672196e+02 </wgt>
<wgt id='2219'> +1.1763319e+02 </wgt>
<wgt id='2220'> +1.1089769e+02 </wgt>
<wgt id='2221'> +1.1052466e+02 </wgt>
<wgt id='2222'> +1.1351443e+02 </wgt>
<wgt id='2223'> +1.0885597e+02 </wgt>
<wgt id='2224'> +1.1277570e+02 </wgt>
<wgt id='2225'> +1.1320065e+02 </wgt>
<wgt id='2226'> +1.1028346e+02 </wgt>
<wgt id='2227'> +1.1312378e+02 </wgt>
<wgt id='2228'> +1.1283926e+02 </wgt>
<wgt id='2229'> +1.1246258e+02 </wgt>
<wgt id='2230'> +1.0974312e+02 </wgt>
<wgt id='2231'> +1.1093010e+02 </wgt>
<wgt id='2232'> +1.0994103e+02 </wgt>
<wgt id='2233'> +1.0938249e+02 </wgt>
<wgt id='2234'> +1.1028306e+02 </wgt>
<wgt id='2235'> +1.1311003e+02 </wgt>
<wgt id='2236'> +1.1440632e+02 </wgt>
<wgt id='2237'> +1.1189979e+02 </wgt>
<wgt id='2238'> +1.1538869e+02 </wgt>
<wgt id='2239'> +1.1746017e+02 </wgt>
<wgt id='2240'> +1.1233225e+02 </wgt>
<wgt id='2241'> +1.1350639e+02 </wgt>
<wgt id='2242'> +1.1101263e+02 </wgt>
<wgt id='2243'> +1.1141997e+02 </wgt>
<wgt id='2244'> +1.1160095e+02 </wgt>
<wgt id='2245'> +1.1238858e+02 </wgt>
<wgt id='2246'> +1.1508804e+02 </wgt>
<wgt id='2247'> +1.1341727e+02 </wgt>
<wgt id='2248'> +1.1370696e+02 </wgt>
<wgt id='2249'> +1.1526984e+02 </wgt>
<wgt id='2250'> +1.1659032e+02 </wgt>
<wgt id='2251'> +1.1153380e+02 </wgt>
<wgt id='2252'> +1.0818748e+02 </wgt>
<wgt id='2253'> +1.0737509e+02 </wgt>
<wgt id='2254'> +1.1261361e+02 </wgt>
<wgt id='2255'> +1.1411486e+02 </wgt>
<wgt id='2256'> +1.1244103e+02 </wgt>
<wgt id='2257'> +1.1108237e+02 </wgt>
<wgt id='2258'> +1.1329110e+02 </wgt>
<wgt id='2259'> +1.1223269e+02 </wgt>
<wgt id='2260'> +1.1288828e+02 </wgt>
<wgt id='2261'> +1.1219038e+02 </wgt>
<wgt id='2262'> +1.0650044e+02 </wgt>
<wgt id='2263'> +1.1173645e+02 </wgt>
<wgt id='2264'> +1.1319975e+02 </wgt>
<wgt id='2265'> +1.1436012e+02 </wgt>
<wgt id='2266'> +1.1345168e+02 </wgt>
<wgt id='2267'> +1.1240900e+02 </wgt>
<wgt id='2268'> +1.1320866e+02 </wgt>
<wgt id='2269'> +1.1350302e+02 </wgt>
<wgt id='2270'> +1.1392484e+02 </wgt>
<wgt id='2271'> +1.1011615e+02 </wgt>
<wgt id='2272'> +1.1492914e+02 </wgt>
<wgt id='2273'> +1.1306154e+02 </wgt>
<wgt id='2274'> +1.0885235e+02 </wgt>
<wgt id='2275'> +1.1190002e+02 </wgt>
<wgt id='2276'> +1.1145147e+02 </wgt>
<wgt id='2277'> +1.1013495e+02 </wgt>
<wgt id='2278'> +1.1241573e+02 </wgt>
<wgt id='2279'> +1.0545836e+02 </wgt>
<wgt id='2280'> +1.1542269e+02 </wgt>
<wgt id='2281'> +1.1324775e+02 </wgt>
<wgt id='2282'> +1.1555533e+02 </wgt>
<wgt id='2283'> +1.1318803e+02 </wgt>
<wgt id='2284'> +1.1277633e+02 </wgt>
<wgt id='2285'> +1.1157053e+02 </wgt>
<wgt id='2286'> +1.1264066e+02 </wgt>
<wgt id='2287'> +1.1030311e+02 </wgt>
<wgt id='2288'> +1.1084472e+02 </wgt>
<wgt id='2289'> +1.1740989e+02 </wgt>
<wgt id='2290'> +1.0951625e+02 </wgt>
<wgt id='2291'> +1.1346698e+02 </wgt>
<wgt id='2292'> +1.1476098e+02 </wgt>
<wgt id='2293'> +1.1201310e+02 </wgt>
<wgt id='2294'> +1.1243616e+02 </wgt>
<wgt id='2295'> +1.1381310e+02 </wgt>
<wgt id='2296'> +1.1404730e+02 </wgt>
<wgt id='2297'> +1.1599542e+02 </wgt>
<wgt id='2298'> +1.0977322e+02 </wgt>
<wgt id='2299'> +1.1469076e+02 </wgt>
<wgt id='2300'> +1.0921089e+02 </wgt>
<wgt id='2301'> +1.0911576e+02 </wgt>
<wgt id='2302'> +1.1251303e+02 </wgt>
<wgt id='2303'> +1.1366705e+02 </wgt>
<wgt id='2304'> +1.0924192e+02 </wgt>
<wgt id='2305'> +1.1245638e+02 </wgt>
<wgt id='2306'> +1.1307414e+02 </wgt>
<wgt id='2307'> +1.1439688e+02 </wgt>
<wgt id='2308'> +1.1174659e+02 </wgt>
<wgt id='2309'> +1.1161642e+02 </wgt>
<wgt id='2310'> +1.0621828e+02 </wgt>
<wgt id='2311'> +1.1188012e+02 </wgt>
<wgt id='2312'> +1.1340314e+02 </wgt>
<wgt id='2313'> +1.1469392e+02 </wgt>
<wgt id='2314'> +1.1259438e+02 </wgt>
<wgt id='2315'> +1.0668901e+02 </wgt>
<wgt id='2316'> +1.1105580e+02 </wgt>
<wgt id='2317'> +1.1341739e+02 </wgt>
<wgt id='2318'> +1.1325761e+02 </wgt>
<wgt id='2319'> +1.2530576e+02 </wgt>
<wgt id='2320'> +1.4041370e+02 </wgt>
<wgt id='2321'> +1.1923237e+02 </wgt>
<wgt id='2322'> +1.4157364e+02 </wgt>
</rwgt>
</event>
<event>
13      1 +1.1579678e+02 1.19818900e+03 7.81859000e-03 8.51220000e-02
        1 -1    0    0  502    0 +0.0000000000e+00 +0.0000000000e+00 +5.8526161746e+02 5.8526161746e+02 0.0000000000e+00 0.0000e+00 1.0000e+00
       -1 -1    0    0    0  501 +0.0000000000e+00 +0.0000000000e+00 -4.7060399749e+03 4.7060399749e+03 0.0000000000e+00 0.0000e+00 -1.0000e+00
        6  2    1    2  502    0 -8.9728265535e+02 -7.9711605692e+02 -3.2043812470e+03 3.4260769899e+03 1.7156396204e+02 0.0000e+00 0.0000e+00
        5  1    3    3  502    0 -4.7198321365e+02 -4.6308214712e+02 -1.9043105807e+03 2.0158402755e+03 0.0000000000e+00 0.0000e+00 -1.0000e+00
       24  2    3    3    0    0 -4.2529944171e+02 -3.3403390980e+02 -1.3000706664e+03 1.4102367144e+03 7.8266117204e+01 0.0000e+00 0.0000e+00
      -13  1    5    5    0    0 -3.5271840281e+02 -3.1104420494e+02 -1.1228663446e+03 1.2173691293e+03 0.0000000000e+00 0.0000e+00 1.0000e+00
       14  1    5    5    0    0 -7.2581038892e+01 -2.2989704857e+01 -1.7720432171e+02 1.9286758506e+02 0.0000000000e+00 0.0000e+00 -1.0000e+00
       -6  2    1    2    0  503 +9.4416546770e+02 +7.1311329946e+02 -2.8830433016e+02 1.2298074151e+03 1.7125385566e+02 0.0000e+00 0.0000e+00
       -5  1    8    8    0  503 +3.9123075868e+02 +3.4374072621e+02 -1.8374907601e+02 5.5225258381e+02 0.0000000000e+00 0.0000e+00 1.0000e+00
      -24  2    8    8    0    0 +5.5293470902e+02 +3.6937257325e+02 -1.0455525416e+02 6.7755483125e+02 7.7303673049e+01 0.0000e+00 0.0000e+00
       13  1   10   10    0    0 +1.3560366370e+02 +9.3158761962e+01 -5.9986759079e+01 1.7511516155e+02 0.0000000000e+00 0.0000e+00 -1.0000e+00
      -14  1   10   10    0    0 +4.1733104532e+02 +2.7621381129e+02 -4.4568495079e+01 5.0243966970e+02 0.0000000000e+00 0.0000e+00 1.0000e+00
       21  1    1    2  503  501 -4.6882812351e+01 +8.4002757462e+01 -6.2809278027e+02 6.3541718736e+02 0.0000000000e+00 0.0000e+00 -1.0000e+00
<scales pt_clust_1="13000.0" pt_clust_2="13000.0" pt_clust_3="13000.0" pt_clust_4="13000.0" pt_clust_5="13000.0" pt_clust_6="13000.0" pt_clust_7="96.20011"></scales>
<mgrwt>
<rscale>  2 0.11981894e+04</rscale>
<asrwt>  1 0.96200111e+02</asrwt>
<pdfrwt beam="1">  1        1 0.90040247e-01 0.11981894e+04</pdfrwt>
<pdfrwt beam="2">  2       -1       -1 0.72400616e+00 0.62228271e+00 0.96200111e+02 0.11981894e+04</pdfrwt>
<totfact> 0.82025503e-05</totfact>
</mgrwt>
<clustering>
<clus scale="   96.200">  2  5  1 -1</clus>
<clus scale=" 3062.660">  3  4 -1 -1</clus>
<clus scale=" 1198.189">  1  3  2 -1</clus>
</clustering>
<rwgt>
<wgt id='reference_point'> +1.1579678e+02 </wgt>
<wgt id='eftrwgt0_ctg_-0.754_cqq83_2.978_cqq81_11.175_cqu8_-0.722_cqd8_-22.551_ctq8_11.076_ctu8_-15.131_ctd8_20.128_cqq13_0.321_cqq11_-6.675_cqu1_-3.516_cqd1_6.151_ctq1_5.402_ctu1_-8.742_ctd1_5.367'> +1.5381672e+02 </wgt>
<wgt id='eftrwgt1_ctg_-1.195_cqq83_-15.761_cqq81_-4.235_cqu8_-15.499_cqd8_-10.228_ctq8_-0.966_ctu8_-17.272_ctd8_-16.58_cqq13_-4.893_cqq11_4.278_cqu1_-0.839_cqd1_-4.333_ctq1_2.613_ctu1_-1.417_ctd1_-2.816'> +5.7977232e+01 </wgt>
<wgt id='eftrwgt2_ctg_-1.383_cqq83_5.883_cqq81_-5.515_cqu8_2.394_cqd8_-9.03_ctq8_-0.054_ctu8_-11.517_ctd8_-10.825_cqq13_-0.011_cqq11_4.192_cqu1_6.747_cqd1_8.549_ctq1_7.513_ctu1_-7.841_ctd1_7.605'> +1.0481595e+02 </wgt>
<wgt id='eftrwgt3_ctg_0.83_cqq83_7.564_cqq81_-4.758_cqu8_11.03_cqd8_2.018_ctq8_13.609_ctu8_6.693_ctd8_12.801_cqq13_1.059_cqq11_-4.128_cqu1_0.962_cqd1_4.274_ctq1_8.055_ctu1_-10.409_ctd1_-1.438'> +2.6721143e+01 </wgt>
<wgt id='eftrwgt4_ctg_0.635_cqq83_-11.713_cqq81_0.383_cqu8_10.984_cqd8_-20.924_ctq8_-2.091_ctu8_5.555_ctd8_1.514_cqq13_3.429_cqq11_-0.162_cqu1_-10.649_cqd1_5.475_ctq1_5.872_ctu1_-1.687_ctd1_-8.071'> +1.2956621e+02 </wgt>
<wgt id='eftrwgt5_ctg_0.29_cqq83_4.054_cqq81_-1.527_cqu8_-4.305_cqd8_-20.381_ctq8_12.02_ctu8_-17.198_ctd8_4.416_cqq13_-0.765_cqq11_-1.818_cqu1_-0.276_cqd1_12.045_ctq1_-6.626_ctu1_4.803_ctd1_5.994'> +2.5574009e+02 </wgt>
<wgt id='eftrwgt6_ctg_0.363_cqq83_-5.38_cqq81_10.485_cqu8_-11.932_cqd8_-4.948_ctq8_9.185_ctu8_-12.064_ctd8_17.315_cqq13_-0.222_cqq11_-6.441_cqu1_-7.804_cqd1_-9.036_ctq1_-7.458_ctu1_9.293_ctd1_3.977'> +1.2005081e+02 </wgt>
<wgt id='eftrwgt7_ctg_-1.197_cqq83_-4.451_cqq81_7.597_cqu8_-7.443_cqd8_22.122_ctq8_3.031_ctu8_-12.259_ctd8_16.154_cqq13_-6.717_cqq11_-0.945_cqu1_5.096_cqd1_2.249_ctq1_-0.68_ctu1_-7.751_ctd1_8.44'> +1.3935418e+02 </wgt>
<wgt id='eftrwgt8_ctg_0.542_cqq83_-14.102_cqq81_-2.643_cqu8_18.837_cqd8_-13.941_ctq8_-13.421_ctu8_13.125_ctd8_-6.068_cqq13_-0.748_cqq11_-1.138_cqu1_3.707_cqd1_-4.4_ctq1_2.065_ctu1_5.13_ctd1_4.025'> +8.3200087e+01 </wgt>
<wgt id='eftrwgt9_ctg_1.074_cqq83_4.736_cqq81_-13.002_cqu8_-15.389_cqd8_0.91_ctq8_-9.328_ctu8_7.624_ctd8_-22.019_cqq13_3.75_cqq11_-2.977_cqu1_-3.02_cqd1_-13.923_ctq1_-7.186_ctu1_2.633_ctd1_-7.896'> +2.5467930e+02 </wgt>
<wgt id='eftrwgt10_ctg_1.238_cqq83_-17.533_cqq81_12.633_cqu8_3.116_cqd8_9.117_ctq8_-4.456_ctu8_0.149_ctd8_15.76_cqq13_-4.569_cqq11_4.155_cqu1_6.051_cqd1_-8.105_ctq1_0.824_ctu1_0.75_ctd1_6.587'> +9.5858176e+01 </wgt>
<wgt id='eftrwgt11_ctg_-1.233_cqq83_-17.319_cqq81_-5.312_cqu8_16.53_cqd8_-9.607_ctq8_-3.402_ctu8_-16.447_ctd8_-22.15_cqq13_-0.265_cqq11_4.394_cqu1_-0.387_cqd1_0.421_ctq1_2.017_ctu1_-6.772_ctd1_6.873'> +2.2619991e+01 </wgt>
<wgt id='eftrwgt12_ctg_0.408_cqq83_-9.97_cqq81_3.05_cqu8_8.428_cqd8_-10.45_ctq8_-4.549_ctu8_7.41_ctd8_-18.252_cqq13_4.276_cqq11_0.305_cqu1_-4.657_cqd1_-5.86_ctq1_4.293_ctu1_-6.686_ctd1_-6.47'> +8.2486128e+01 </wgt>
<wgt id='eftrwgt13_ctg_1.091_cqq83_16.651_cqq81_9.034_cqu8_-17.068_cqd8_-16.41_ctq8_5.505_ctu8_-6.023_ctd8_-19.606_cqq13_-1.427_cqq11_2.94_cqu1_-7.645_cqd1_-9.373_ctq1_-6.218_ctu1_1.987_ctd1_-10.94'> +2.0839911e+02 </wgt>
<wgt id='eftrwgt14_ctg_-0.901_cqq83_-3.298_cqq81_-0.028_cqu8_-17.181_cqd8_-17.858_ctq8_-13.488_ctu8_-10.256_ctd8_-0.921_cqq13_4.443_cqq11_-0.633_cqu1_-9.228_cqd1_11.328_ctq1_-0.213_ctu1_-0.551_ctd1_-5.789'> +2.1569707e+02 </wgt>
<wgt id='eftrwgt15_ctg_1.026_cqq83_10.852_cqq81_-7.218_cqu8_6.384_cqd8_16.276_ctq8_-4.737_ctu8_-13.404_ctd8_1.733_cqq13_7.315_cqq11_-8.101_cqu1_-2.738_cqd1_7.548_ctq1_8.479_ctu1_-6.738_ctd1_-5.539'> +1.6212624e+02 </wgt>
<wgt id='eftrwgt16_ctg_-0.132_cqq83_-16.656_cqq81_4.305_cqu8_-12.062_cqd8_4.31_ctq8_13.615_ctu8_3.27_ctd8_11.552_cqq13_-1.799_cqq11_7.423_cqu1_6.843_cqd1_13.535_ctq1_0.146_ctu1_7.054_ctd1_9.686'> +2.5736485e+02 </wgt>
<wgt id='eftrwgt17_ctg_0.712_cqq83_-6.61_cqq81_-4.301_cqu8_-1.403_cqd8_6.303_ctq8_-4.86_ctu8_3.128_ctd8_-14.844_cqq13_0.039_cqq11_-4.957_cqu1_2.629_cqd1_-12.532_ctq1_4.939_ctu1_-4.209_ctd1_-3.655'> +2.0493021e+02 </wgt>
<wgt id='eftrwgt18_ctg_-1.35_cqq83_-11.68_cqq81_4.439_cqu8_13.372_cqd8_-0.653_ctq8_5.688_ctu8_0.67_ctd8_-7.709_cqq13_-5.475_cqq11_-5.399_cqu1_3.601_cqd1_-8.439_ctq1_1.117_ctu1_-0.006_ctd1_13.614'> +9.3866124e+01 </wgt>
<wgt id='eftrwgt19_ctg_0.098_cqq83_15.517_cqq81_-5.712_cqu8_-4.013_cqd8_-7.836_ctq8_-1.046_ctu8_-12.063_ctd8_6.039_cqq13_-3.557_cqq11_7.181_cqu1_6.996_cqd1_-3.116_ctq1_1.869_ctu1_1.545_ctd1_-10.959'> +3.1874964e+01 </wgt>
<wgt id='eftrwgt20_ctg_0.401_cqq83_8.943_cqq81_9.36_cqu8_14.22_cqd8_-14.886_ctq8_8.313_ctu8_5.302_ctd8_-10.568_cqq13_-2.406_cqq11_5.185_cqu1_-6.752_cqd1_-3.344_ctq1_-0.322_ctu1_-1.749_ctd1_2.241'> +7.7587338e+01 </wgt>
<wgt id='eftrwgt21_ctg_0.263_cqq83_-7.003_cqq81_9.705_cqu8_13.582_cqd8_19.058_ctq8_12.946_ctu8_6.424_ctd8_17.248_cqq13_-4.887_cqq11_-3.405_cqu1_10.633_cqd1_-6.948_ctq1_5.694_ctu1_-6.922_ctd1_1.277'> +1.3498357e+02 </wgt>
<wgt id='eftrwgt22_ctg_0.627_cqq83_-17.281_cqq81_-4.961_cqu8_16.938_cqd8_22.735_ctq8_-1.208_ctu8_-3.511_ctd8_-5.122_cqq13_5.387_cqq11_-4.565_cqu1_7.804_cqd1_11.098_ctq1_-1.5_ctu1_8.736_ctd1_13.194'> +3.3527647e+02 </wgt>
<wgt id='eftrwgt23_ctg_-0.648_cqq83_15.811_cqq81_12.009_cqu8_-18.949_cqd8_0.783_ctq8_-3.059_ctu8_-17.702_ctd8_-6.711_cqq13_-4.356_cqq11_3.652_cqu1_-8.368_cqd1_-4.016_ctq1_2.411_ctu1_3.109_ctd1_4.001'> +2.0776437e+01 </wgt>
<wgt id='eftrwgt24_ctg_0.279_cqq83_3.419_cqq81_-12.348_cqu8_-3.685_cqd8_-7.428_ctq8_10.986_ctu8_-5.15_ctd8_-17.732_cqq13_-2.497_cqq11_-5.647_cqu1_0.002_cqd1_-4.035_ctq1_-3.93_ctu1_-1.854_ctd1_8.352'> +3.9558774e+01 </wgt>
<wgt id='eftrwgt25_ctg_1.257_cqq83_8.7_cqq81_-13.787_cqu8_1.396_cqd8_-4.553_ctq8_0.437_ctu8_6.957_ctd8_15.293_cqq13_7.476_cqq11_-5.974_cqu1_-3.383_cqd1_-2.371_ctq1_-0.219_ctu1_2.622_ctd1_-7.856'> +1.4060233e+01 </wgt>
<wgt id='eftrwgt26_ctg_-1.323_cqq83_-5.612_cqq81_0.616_cqu8_6.632_cqd8_-3.336_ctq8_13.782_ctu8_-3.939_ctd8_-15.742_cqq13_2.848_cqq11_5.501_cqu1_-1.125_cqd1_-13.284_ctq1_-0.806_ctu1_-0.98_ctd1_-3.316'> +2.4285498e+02 </wgt>
<wgt id='eftrwgt27_ctg_-1.062_cqq83_-5.785_cqq81_-3.069_cqu8_7.318_cqd8_-18.47_ctq8_-5.182_ctu8_-7.369_ctd8_-7.449_cqq13_-0.119_cqq11_-7.366_cqu1_-4.956_cqd1_-13.113_ctq1_-1.612_ctu1_-8.864_ctd1_-9.975'> +3.5154060e+02 </wgt>
<wgt id='eftrwgt28_ctg_0.241_cqq83_-10.317_cqq81_-13.275_cqu8_-8.248_cqd8_-17.794_ctq8_-12.823_ctu8_-16.47_ctd8_-4.449_cqq13_-2.362_cqq11_4.11_cqu1_-10.775_cqd1_-8.582_ctq1_2.037_ctu1_-10.4_ctd1_1.059'> +1.9995017e+02 </wgt>
<wgt id='eftrwgt29_ctg_0.186_cqq83_-14.559_cqq81_-7.088_cqu8_-18.724_cqd8_-0.974_ctq8_-0.831_ctu8_6.546_ctd8_-21.38_cqq13_-1.637_cqq11_2.85_cqu1_2.42_cqd1_-0.935_ctq1_-8.07_ctu1_5.575_ctd1_0.549'> +1.5035737e+00 </wgt>
<wgt id='eftrwgt30_ctg_-1.395_cqq83_-10.203_cqq81_12.938_cqu8_3.137_cqd8_11.131_ctq8_9.079_ctu8_-0.374_ctd8_-23.313_cqq13_-4.383_cqq11_-1.0_cqu1_1.541_cqd1_2.342_ctq1_-4.241_ctu1_-4.162_ctd1_-12.306'> +4.2315992e+01 </wgt>
<wgt id='eftrwgt31_ctg_0.115_cqq83_-15.901_cqq81_-6.358_cqu8_-16.907_cqd8_-5.747_ctq8_2.066_ctu8_-12.966_ctd8_-16.328_cqq13_-3.096_cqq11_2.684_cqu1_-8.352_cqd1_-6.211_ctq1_2.511_ctu1_5.799_ctd1_9.554'> +6.4139727e+01 </wgt>
<wgt id='eftrwgt32_ctg_1.117_cqq83_2.704_cqq81_7.787_cqu8_-16.533_cqd8_8.904_ctq8_10.253_ctu8_2.612_ctd8_4.645_cqq13_-5.493_cqq11_2.812_cqu1_-7.509_cqd1_-3.19_ctq1_-6.22_ctu1_5.276_ctd1_5.86'> +2.9201759e+01 </wgt>
<wgt id='eftrwgt33_ctg_0.209_cqq83_-8.091_cqq81_-11.607_cqu8_-16.123_cqd8_-8.064_ctq8_-3.29_ctu8_-14.767_ctd8_-13.018_cqq13_-5.739_cqq11_0.542_cqu1_-1.411_cqd1_-8.179_ctq1_-5.997_ctu1_-7.343_ctd1_12.169'> +1.1386907e+02 </wgt>
<wgt id='eftrwgt34_ctg_-1.122_cqq83_6.387_cqq81_-1.268_cqu8_-5.867_cqd8_-9.336_ctq8_-2.052_ctu8_-17.13_ctd8_21.742_cqq13_0.581_cqq11_5.886_cqu1_-10.133_cqd1_-11.29_ctq1_-6.71_ctu1_3.942_ctd1_9.713'> +2.0489663e+02 </wgt>
<wgt id='eftrwgt35_ctg_-1.321_cqq83_10.781_cqq81_5.96_cqu8_-16.967_cqd8_5.511_ctq8_-3.29_ctu8_-3.816_ctd8_-14.387_cqq13_-5.938_cqq11_-2.941_cqu1_-5.98_cqd1_11.576_ctq1_0.788_ctu1_10.277_ctd1_-4.905'> +1.9433434e+02 </wgt>
<wgt id='eftrwgt36_ctg_-0.68_cqq83_-4.656_cqq81_2.64_cqu8_-5.091_cqd8_-6.267_ctq8_12.357_ctu8_4.141_ctd8_8.527_cqq13_4.229_cqq11_-0.357_cqu1_6.729_cqd1_-0.812_ctq1_5.304_ctu1_-6.109_ctd1_-13.243'> +1.1252943e+01 </wgt>
<wgt id='eftrwgt37_ctg_-1.287_cqq83_-9.3_cqq81_-1.066_cqu8_-15.272_cqd8_5.656_ctq8_0.824_ctu8_-7.129_ctd8_-5.439_cqq13_-7.864_cqq11_0.302_cqu1_3.094_cqd1_1.84_ctq1_-4.372_ctu1_-7.563_ctd1_2.217'> +1.4440277e+01 </wgt>
<wgt id='eftrwgt38_ctg_0.789_cqq83_2.618_cqq81_-0.896_cqu8_4.006_cqd8_12.013_ctq8_-9.44_ctu8_-16.781_ctd8_-6.655_cqq13_-5.548_cqq11_2.529_cqu1_7.52_cqd1_-4.256_ctq1_5.745_ctu1_0.798_ctd1_7.829'> +5.2228089e+01 </wgt>
<wgt id='eftrwgt39_ctg_0.721_cqq83_1.632_cqq81_7.373_cqu8_-0.631_cqd8_4.104_ctq8_12.802_ctu8_-10.868_ctd8_-5.968_cqq13_-1.832_cqq11_-3.336_cqu1_-4.17_cqd1_-6.056_ctq1_-3.676_ctu1_5.679_ctd1_-9.027'> +4.9173414e+01 </wgt>
<wgt id='eftrwgt40_ctg_-0.362_cqq83_-1.589_cqq81_6.197_cqu8_-18.27_cqd8_7.832_ctq8_-9.399_ctu8_-6.455_ctd8_10.547_cqq13_-4.378_cqq11_5.514_cqu1_-8.215_cqd1_4.889_ctq1_5.265_ctu1_10.009_ctd1_3.422'> +5.3857951e+01 </wgt>
<wgt id='eftrwgt41_ctg_0.658_cqq83_-10.403_cqq81_3.211_cqu8_-2.337_cqd8_17.509_ctq8_6.996_ctu8_-1.761_ctd8_-2.923_cqq13_7.515_cqq11_-0.097_cqu1_0.074_cqd1_12.92_ctq1_-6.01_ctu1_-8.626_ctd1_2.326'> +3.3479778e+02 </wgt>
<wgt id='eftrwgt42_ctg_0.239_cqq83_-0.972_cqq81_-1.122_cqu8_-17.342_cqd8_-7.199_ctq8_-12.68_ctu8_1.247_ctd8_17.533_cqq13_-6.465_cqq11_-5.436_cqu1_9.489_cqd1_-0.985_ctq1_8.129_ctu1_-5.418_ctd1_5.104'> +1.4733841e+01 </wgt>
<wgt id='eftrwgt43_ctg_-0.649_cqq83_12.017_cqq81_-8.81_cqu8_-11.947_cqd8_-0.617_ctq8_-8.389_ctu8_-11.126_ctd8_-23.747_cqq13_-2.837_cqq11_5.496_cqu1_4.701_cqd1_4.955_ctq1_2.49_ctu1_2.683_ctd1_-7.631'> +3.1695641e+01 </wgt>
<wgt id='eftrwgt44_ctg_0.171_cqq83_12.009_cqq81_1.908_cqu8_4.651_cqd8_-17.53_ctq8_4.385_ctu8_9.354_ctd8_6.605_cqq13_0.349_cqq11_-3.295_cqu1_-5.85_cqd1_-13.524_ctq1_0.629_ctu1_-6.984_ctd1_13.334'> +3.5329091e+02 </wgt>
<wgt id='eftrwgt45_ctg_1.117_cqq83_-1.134_cqq81_0.846_cqu8_-17.819_cqd8_7.834_ctq8_-1.016_ctu8_17.048_ctd8_-16.169_cqq13_3.138_cqq11_-2.054_cqu1_-10.535_cqd1_-6.766_ctq1_2.47_ctu1_6.02_ctd1_11.267'> +6.6925612e+01 </wgt>
<wgt id='eftrwgt46_ctg_0.852_cqq83_-5.375_cqq81_-1.252_cqu8_-6.421_cqd8_17.384_ctq8_4.252_ctu8_6.891_ctd8_10.51_cqq13_-4.608_cqq11_7.589_cqu1_-6.678_cqd1_11.188_ctq1_-3.189_ctu1_-10.063_ctd1_0.955'> +2.7380533e+02 </wgt>
<wgt id='eftrwgt47_ctg_0.672_cqq83_10.633_cqq81_-10.436_cqu8_3.141_cqd8_5.015_ctq8_-11.403_ctu8_-4.418_ctd8_-1.92_cqq13_0.491_cqq11_-8.212_cqu1_-0.701_cqd1_-0.931_ctq1_5.075_ctu1_5.776_ctd1_-9.187'> +7.0297636e+00 </wgt>
<wgt id='eftrwgt48_ctg_0.097_cqq83_-13.235_cqq81_3.083_cqu8_-6.992_cqd8_-21.927_ctq8_-1.972_ctu8_12.828_ctd8_-23.378_cqq13_1.548_cqq11_-7.292_cqu1_-7.809_cqd1_-3.663_ctq1_-0.091_ctu1_3.906_ctd1_0.689'> +1.5072758e+02 </wgt>
<wgt id='eftrwgt49_ctg_1.029_cqq83_-0.471_cqq81_-7.658_cqu8_-14.403_cqd8_16.435_ctq8_-10.202_ctu8_-12.269_ctd8_-13.394_cqq13_-1.09_cqq11_4.914_cqu1_-4.324_cqd1_0.827_ctq1_-4.544_ctu1_-0.962_ctd1_9.864'> +7.1695116e+01 </wgt>
<wgt id='eftrwgt50_ctg_-0.665_cqq83_-14.242_cqq81_-8.115_cqu8_4.63_cqd8_10.452_ctq8_-13.832_ctu8_-13.909_ctd8_-10.071_cqq13_-2.706_cqq11_1.201_cqu1_0.148_cqd1_-0.781_ctq1_-6.102_ctu1_-6.349_ctd1_6.964'> +2.7261493e+01 </wgt>
<wgt id='eftrwgt51_ctg_-0.787_cqq83_-15.261_cqq81_8.809_cqu8_-2.155_cqd8_-17.025_ctq8_-6.971_ctu8_10.751_ctd8_-10.297_cqq13_-0.617_cqq11_7.049_cqu1_-7.986_cqd1_-2.061_ctq1_0.449_ctu1_6.857_ctd1_-13.813'> +8.3697599e+01 </wgt>
<wgt id='eftrwgt52_ctg_0.862_cqq83_17.48_cqq81_4.698_cqu8_8.08_cqd8_9.692_ctq8_3.485_ctu8_11.755_ctd8_-3.559_cqq13_6.645_cqq11_2.713_cqu1_-8.115_cqd1_8.608_ctq1_-6.273_ctu1_7.111_ctd1_5.866'> +1.3580411e+02 </wgt>
<wgt id='eftrwgt53_ctg_-0.903_cqq83_3.892_cqq81_-1.362_cqu8_-12.339_cqd8_-12.919_ctq8_2.258_ctu8_8.165_ctd8_16.95_cqq13_-4.352_cqq11_1.546_cqu1_7.695_cqd1_11.734_ctq1_2.3_ctu1_9.781_ctd1_1.838'> +1.9866801e+02 </wgt>
<wgt id='eftrwgt54_ctg_-0.522_cqq83_-0.949_cqq81_-0.037_cqu8_14.405_cqd8_-4.088_ctq8_-5.643_ctu8_8.684_ctd8_-21.06_cqq13_-6.966_cqq11_-5.093_cqu1_-4.897_cqd1_2.455_ctq1_-3.435_ctu1_3.57_ctd1_-7.932'> +1.0328083e+01 </wgt>
<wgt id='eftrwgt55_ctg_-0.222_cqq83_1.213_cqq81_10.848_cqu8_-14.188_cqd8_-19.129_ctq8_4.966_ctu8_6.833_ctd8_-10.208_cqq13_6.393_cqq11_2.922_cqu1_9.268_cqd1_9.372_ctq1_3.58_ctu1_5.027_ctd1_13.963'> +1.7929908e+02 </wgt>
<wgt id='eftrwgt56_ctg_-0.064_cqq83_-13.896_cqq81_-9.146_cqu8_-12.936_cqd8_6.184_ctq8_-9.142_ctu8_7.671_ctd8_-23.063_cqq13_-5.638_cqq11_0.314_cqu1_3.549_cqd1_13.313_ctq1_7.463_ctu1_-2.827_ctd1_4.274'> +2.5724134e+02 </wgt>
<wgt id='eftrwgt57_ctg_0.55_cqq83_-0.366_cqq81_13.131_cqu8_-11.082_cqd8_-6.326_ctq8_-1.457_ctu8_-10.801_ctd8_-1.042_cqq13_-6.705_cqq11_-3.081_cqu1_2.128_cqd1_13.722_ctq1_-3.878_ctu1_8.438_ctd1_-10.644'> +2.4320626e+02 </wgt>
<wgt id='eftrwgt58_ctg_-0.739_cqq83_-1.927_cqq81_-4.498_cqu8_-7.655_cqd8_-12.724_ctq8_7.311_ctu8_0.6_ctd8_-24.282_cqq13_7.046_cqq11_-1.157_cqu1_2.74_cqd1_1.196_ctq1_0.456_ctu1_10.57_ctd1_6.47'> +3.9945987e+01 </wgt>
<wgt id='eftrwgt59_ctg_-0.809_cqq83_6.461_cqq81_5.164_cqu8_7.348_cqd8_-10.049_ctq8_-9.039_ctu8_11.156_ctd8_17.765_cqq13_2.406_cqq11_-3.454_cqu1_-8.251_cqd1_3.987_ctq1_-2.608_ctu1_-5.906_ctd1_-13.122'> +3.8834682e+01 </wgt>
<wgt id='eftrwgt60_ctg_0.321_cqq83_5.49_cqq81_9.481_cqu8_6.2_cqd8_6.877_ctq8_-2.766_ctu8_2.591_ctd8_5.007_cqq13_4.948_cqq11_-5.846_cqu1_1.836_cqd1_2.37_ctq1_3.758_ctu1_-2.994_ctd1_-9.755'> +2.2168219e+01 </wgt>
<wgt id='eftrwgt61_ctg_0.309_cqq83_13.504_cqq81_0.142_cqu8_15.303_cqd8_-11.281_ctq8_-13.865_ctu8_10.736_ctd8_-18.349_cqq13_0.658_cqq11_-2.407_cqu1_-8.659_cqd1_5.691_ctq1_0.834_ctu1_-7.918_ctd1_8.27'> +6.4441797e+01 </wgt>
<wgt id='eftrwgt62_ctg_-0.755_cqq83_1.09_cqq81_-2.059_cqu8_14.895_cqd8_0.941_ctq8_-0.117_ctu8_-3.607_ctd8_-7.303_cqq13_2.029_cqq11_-6.951_cqu1_-7.372_cqd1_-8.246_ctq1_-0.626_ctu1_-0.403_ctd1_-6.554'> +8.9051096e+01 </wgt>
<wgt id='eftrwgt63_ctg_-1.189_cqq83_3.274_cqq81_5.97_cqu8_-8.688_cqd8_14.017_ctq8_2.273_ctu8_14.433_ctd8_-19.069_cqq13_-4.403_cqq11_3.367_cqu1_-4.681_cqd1_10.796_ctq1_-4.846_ctu1_1.054_ctd1_-13.006'> +2.2634592e+02 </wgt>
<wgt id='eftrwgt64_ctg_0.949_cqq83_12.237_cqq81_-2.266_cqu8_-10.878_cqd8_-7.642_ctq8_-6.632_ctu8_-5.91_ctd8_22.286_cqq13_-6.42_cqq11_-0.839_cqu1_-9.914_cqd1_11.165_ctq1_5.728_ctu1_-2.834_ctd1_-11.273'> +1.6400846e+02 </wgt>
<wgt id='eftrwgt65_ctg_-1.077_cqq83_6.554_cqq81_-5.771_cqu8_-11.958_cqd8_-5.175_ctq8_6.893_ctu8_-15.271_ctd8_-11.605_cqq13_-2.625_cqq11_5.619_cqu1_-3.062_cqd1_8.844_ctq1_8.759_ctu1_7.743_ctd1_-9.404'> +1.0182300e+02 </wgt>
<wgt id='eftrwgt66_ctg_0.739_cqq83_-0.73_cqq81_-3.942_cqu8_0.197_cqd8_-20.568_ctq8_-3.855_ctu8_3.62_ctd8_-1.663_cqq13_1.279_cqq11_-5.868_cqu1_-1.596_cqd1_4.61_ctq1_-0.985_ctu1_5.278_ctd1_1.935'> +1.1794405e+02 </wgt>
<wgt id='eftrwgt67_ctg_-1.144_cqq83_-9.411_cqq81_11.632_cqu8_13.794_cqd8_19.35_ctq8_-9.734_ctu8_17.462_ctd8_-9.013_cqq13_6.095_cqq11_1.653_cqu1_10.71_cqd1_-11.055_ctq1_7.571_ctu1_0.484_ctd1_-1.685'> +2.2156950e+02 </wgt>
<wgt id='eftrwgt68_ctg_0.408_cqq83_3.73_cqq81_-12.673_cqu8_-15.054_cqd8_23.598_ctq8_0.269_ctu8_8.53_ctd8_-19.396_cqq13_1.648_cqq11_6.789_cqu1_-10.541_cqd1_-5.767_ctq1_-2.558_ctu1_-8.764_ctd1_1.857'> +1.6234401e+02 </wgt>
<wgt id='eftrwgt69_ctg_0.663_cqq83_-13.808_cqq81_11.681_cqu8_8.175_cqd8_23.585_ctq8_-6.295_ctu8_5.707_ctd8_-2.004_cqq13_2.652_cqq11_0.351_cqu1_-4.864_cqd1_13.53_ctq1_-5.642_ctu1_0.492_ctd1_8.029'> +4.3471755e+02 </wgt>
<wgt id='eftrwgt70_ctg_-0.454_cqq83_-0.455_cqq81_-2.236_cqu8_8.99_cqd8_14.139_ctq8_-10.102_ctu8_-6.093_ctd8_-2.425_cqq13_3.095_cqq11_-0.462_cqu1_-1.855_cqd1_11.152_ctq1_2.965_ctu1_0.951_ctd1_-6.03'> +2.3972600e+02 </wgt>
<wgt id='eftrwgt71_ctg_-0.477_cqq83_-16.758_cqq81_13.224_cqu8_13.232_cqd8_-5.763_ctq8_9.379_ctu8_-10.048_ctd8_-23.022_cqq13_4.391_cqq11_-6.178_cqu1_-8.099_cqd1_-8.009_ctq1_-1.03_ctu1_-2.674_ctd1_-1.681'> +1.0031433e+02 </wgt>
<wgt id='eftrwgt72_ctg_0.622_cqq83_2.696_cqq81_-10.207_cqu8_5.957_cqd8_7.886_ctq8_4.197_ctu8_8.121_ctd8_-20.035_cqq13_2.851_cqq11_-6.744_cqu1_-10.799_cqd1_2.202_ctq1_-7.508_ctu1_-1.701_ctd1_8.892'> +2.5220988e+01 </wgt>
<wgt id='eftrwgt73_ctg_-0.493_cqq83_10.355_cqq81_1.302_cqu8_-9.783_cqd8_-15.531_ctq8_-10.402_ctu8_5.144_ctd8_6.559_cqq13_5.572_cqq11_-0.688_cqu1_-7.729_cqd1_4.564_ctq1_-4.037_ctu1_3.296_ctd1_-5.207'> +7.5607017e+01 </wgt>
<wgt id='eftrwgt74_ctg_-1.313_cqq83_-14.474_cqq81_-0.652_cqu8_2.59_cqd8_16.401_ctq8_2.461_ctu8_-12.258_ctd8_-5.822_cqq13_6.708_cqq11_-5.017_cqu1_7.523_cqd1_10.388_ctq1_-3.975_ctu1_-5.142_ctd1_-12.623'> +2.3668732e+02 </wgt>
<wgt id='eftrwgt75_ctg_-0.166_cqq83_14.655_cqq81_-13.165_cqu8_13.182_cqd8_17.65_ctq8_8.035_ctu8_-7.41_ctd8_5.594_cqq13_-1.583_cqq11_4.47_cqu1_6.793_cqd1_9.148_ctq1_6.872_ctu1_4.564_ctd1_-3.17'> +2.1544657e+02 </wgt>
<wgt id='eftrwgt76_ctg_0.607_cqq83_-7.784_cqq81_0.889_cqu8_-5.808_cqd8_-18.52_ctq8_-10.702_ctu8_6.093_ctd8_5.795_cqq13_-4.86_cqq11_6.059_cqu1_5.977_cqd1_-3.82_ctq1_-0.432_ctu1_0.091_ctd1_12.704'> +1.1478921e+02 </wgt>
<wgt id='eftrwgt77_ctg_-0.008_cqq83_-13.549_cqq81_-2.371_cqu8_-17.548_cqd8_17.783_ctq8_-12.818_ctu8_-10.851_ctd8_-11.002_cqq13_-7.936_cqq11_-0.409_cqu1_4.737_cqd1_0.464_ctq1_-0.138_ctu1_-4.15_ctd1_2.286'> +8.1673307e+01 </wgt>
<wgt id='eftrwgt78_ctg_0.693_cqq83_-17.302_cqq81_-6.475_cqu8_7.814_cqd8_3.71_ctq8_7.916_ctu8_-4.439_ctd8_21.712_cqq13_-1.558_cqq11_5.054_cqu1_2.274_cqd1_7.748_ctq1_-4.741_ctu1_4.163_ctd1_-9.021'> +8.7227656e+01 </wgt>
<wgt id='eftrwgt79_ctg_-1.245_cqq83_-11.588_cqq81_7.305_cqu8_-18.227_cqd8_-8.677_ctq8_11.343_ctu8_2.055_ctd8_-10.604_cqq13_4.361_cqq11_6.251_cqu1_4.537_cqd1_-0.734_ctq1_3.998_ctu1_-6.261_ctd1_-5.045'> +2.0402229e+01 </wgt>
<wgt id='eftrwgt80_ctg_-0.18_cqq83_-10.265_cqq81_2.0_cqu8_-7.281_cqd8_10.418_ctq8_-8.392_ctu8_-11.821_ctd8_14.446_cqq13_4.32_cqq11_-7.909_cqu1_-1.266_cqd1_-1.485_ctq1_7.422_ctu1_-9.567_ctd1_-7.015'> +2.8492188e+01 </wgt>
<wgt id='eftrwgt81_ctg_0.953_cqq83_-15.744_cqq81_-8.719_cqu8_4.233_cqd8_5.5_ctq8_9.427_ctu8_-3.148_ctd8_13.913_cqq13_7.844_cqq11_-2.685_cqu1_-10.526_cqd1_-11.474_ctq1_1.94_ctu1_-0.862_ctd1_-11.271'> +1.7235333e+02 </wgt>
<wgt id='eftrwgt82_ctg_0.709_cqq83_-3.094_cqq81_5.584_cqu8_5.962_cqd8_-12.068_ctq8_7.256_ctu8_-14.777_ctd8_-14.389_cqq13_-4.278_cqq11_8.12_cqu1_0.179_cqd1_-1.651_ctq1_-8.145_ctu1_2.242_ctd1_-10.245'> +4.3054950e+01 </wgt>
<wgt id='eftrwgt83_ctg_0.687_cqq83_-1.156_cqq81_3.18_cqu8_-3.335_cqd8_-0.404_ctq8_-5.778_ctu8_6.62_ctd8_-17.153_cqq13_-5.912_cqq11_5.654_cqu1_-1.269_cqd1_8.004_ctq1_-1.868_ctu1_0.845_ctd1_4.292'> +8.4377818e+01 </wgt>
<wgt id='eftrwgt84_ctg_-0.183_cqq83_-0.308_cqq81_0.037_cqu8_14.309_cqd8_-5.805_ctq8_9.893_ctu8_-5.881_ctd8_-1.437_cqq13_-2.017_cqq11_-6.656_cqu1_-1.67_cqd1_-5.98_ctq1_-8.794_ctu1_2.683_ctd1_9.412'> +6.0301919e+01 </wgt>
<wgt id='eftrwgt85_ctg_-0.942_cqq83_15.035_cqq81_13.373_cqu8_-5.07_cqd8_16.019_ctq8_-8.366_ctu8_14.649_ctd8_22.16_cqq13_-4.681_cqq11_6.562_cqu1_-1.143_cqd1_-10.901_ctq1_-6.626_ctu1_7.385_ctd1_-3.635'> +1.9454062e+02 </wgt>
<wgt id='eftrwgt86_ctg_-0.142_cqq83_-2.994_cqq81_12.042_cqu8_8.306_cqd8_-8.182_ctq8_-12.155_ctu8_-0.571_ctd8_11.633_cqq13_-5.051_cqq11_1.519_cqu1_-1.733_cqd1_9.994_ctq1_-6.524_ctu1_4.94_ctd1_2.118'> +1.3523953e+02 </wgt>
<wgt id='eftrwgt87_ctg_0.929_cqq83_16.258_cqq81_4.432_cqu8_11.37_cqd8_2.732_ctq8_-0.209_ctu8_11.238_ctd8_0.002_cqq13_-3.184_cqq11_5.425_cqu1_-3.268_cqd1_11.628_ctq1_2.342_ctu1_-8.392_ctd1_13.454'> +1.8700809e+02 </wgt>
<wgt id='eftrwgt88_ctg_0.663_cqq83_-0.312_cqq81_4.634_cqu8_13.091_cqd8_20.152_ctq8_-11.08_ctu8_10.132_ctd8_8.016_cqq13_2.666_cqq11_-0.154_cqu1_10.589_cqd1_-1.792_ctq1_-0.235_ctu1_-1.608_ctd1_11.236'> +1.0172538e+02 </wgt>
<wgt id='eftrwgt89_ctg_-0.7_cqq83_-8.489_cqq81_-4.248_cqu8_-16.694_cqd8_11.319_ctq8_10.136_ctu8_16.621_ctd8_-12.449_cqq13_5.869_cqq11_0.2_cqu1_7.255_cqd1_6.776_ctq1_-7.91_ctu1_7.893_ctd1_-13.519'> +1.0459302e+02 </wgt>
<wgt id='eftrwgt90_ctg_1.035_cqq83_-14.726_cqq81_-10.269_cqu8_8.762_cqd8_-16.804_ctq8_-12.281_ctu8_-9.071_ctd8_-18.776_cqq13_-0.931_cqq11_-5.226_cqu1_2.228_cqd1_0.749_ctq1_4.043_ctu1_-9.625_ctd1_12.055'> +6.9014748e+01 </wgt>
<wgt id='eftrwgt91_ctg_0.582_cqq83_7.693_cqq81_-11.295_cqu8_-2.266_cqd8_14.634_ctq8_4.883_ctu8_17.79_ctd8_11.844_cqq13_-6.479_cqq11_-4.102_cqu1_2.603_cqd1_-3.346_ctq1_-0.515_ctu1_-6.838_ctd1_-11.52'> +6.1973067e+01 </wgt>
<wgt id='eftrwgt92_ctg_-1.029_cqq83_4.889_cqq81_-11.405_cqu8_13.309_cqd8_-14.979_ctq8_-5.195_ctu8_6.668_ctd8_-24.798_cqq13_5.441_cqq11_-0.506_cqu1_-0.753_cqd1_-13.543_ctq1_-8.67_ctu1_-7.915_ctd1_-0.334'> +3.3056743e+02 </wgt>
<wgt id='eftrwgt93_ctg_1.323_cqq83_-4.365_cqq81_-4.298_cqu8_7.237_cqd8_-13.74_ctq8_-0.526_ctu8_-16.032_ctd8_-23.867_cqq13_-2.711_cqq11_8.204_cqu1_-9.783_cqd1_-13.301_ctq1_5.357_ctu1_-4.585_ctd1_3.272'> +3.0913963e+02 </wgt>
<wgt id='eftrwgt94_ctg_0.923_cqq83_-5.687_cqq81_-9.274_cqu8_-6.946_cqd8_-18.634_ctq8_-2.87_ctu8_-10.48_ctd8_20.825_cqq13_0.818_cqq11_7.594_cqu1_-2.651_cqd1_-8.209_ctq1_-4.375_ctu1_-0.453_ctd1_-11.307'> +1.9939408e+02 </wgt>
<wgt id='eftrwgt95_ctg_-0.353_cqq83_16.887_cqq81_4.599_cqu8_5.271_cqd8_15.7_ctq8_9.777_ctu8_16.081_ctd8_11.396_cqq13_-1.084_cqq11_-4.79_cqu1_-0.778_cqd1_12.085_ctq1_-5.567_ctu1_-7.961_ctd1_2.198'> +2.8649855e+02 </wgt>
<wgt id='eftrwgt96_ctg_0.041_cqq83_-5.923_cqq81_-2.955_cqu8_4.903_cqd8_20.523_ctq8_-10.841_ctu8_-16.659_ctd8_-20.437_cqq13_-0.715_cqq11_3.365_cqu1_7.617_cqd1_-8.653_ctq1_-1.465_ctu1_-1.263_ctd1_-7.434'> +1.7689005e+02 </wgt>
<wgt id='eftrwgt97_ctg_0.464_cqq83_6.456_cqq81_3.991_cqu8_-17.621_cqd8_21.05_ctq8_-3.045_ctu8_-1.74_ctd8_-0.321_cqq13_-0.503_cqq11_-7.685_cqu1_3.634_cqd1_-8.072_ctq1_-8.465_ctu1_4.741_ctd1_-8.716'> +1.7149673e+02 </wgt>
<wgt id='eftrwgt98_ctg_1.109_cqq83_-17.675_cqq81_-12.841_cqu8_-7.769_cqd8_-4.881_ctq8_8.767_ctu8_1.909_ctd8_-17.434_cqq13_5.514_cqq11_4.151_cqu1_-4.537_cqd1_10.377_ctq1_-0.495_ctu1_-9.214_ctd1_-2.18'> +1.3965982e+02 </wgt>
<wgt id='eftrwgt99_ctg_0.407_cqq83_-15.227_cqq81_3.076_cqu8_16.069_cqd8_-14.34_ctq8_-10.144_ctu8_-13.132_ctd8_6.768_cqq13_-2.495_cqq11_-6.097_cqu1_-9.127_cqd1_6.952_ctq1_6.568_ctu1_4.211_ctd1_13.935'> +9.9249902e+01 </wgt>
<wgt id='eftrwgt100_ctg_-0.701_cqq83_-0.048_cqq81_-13.163_cqu8_5.634_cqd8_10.956_ctq8_-0.744_ctu8_7.675_ctd8_11.807_cqq13_5.749_cqq11_-2.151_cqu1_8.431_cqd1_-6.532_ctq1_6.71_ctu1_1.894_ctd1_-1.052'> +7.5616233e+01 </wgt>
<wgt id='eftrwgt101_ctg_-0.35_cqq83_14.955_cqq81_13.247_cqu8_12.366_cqd8_-17.494_ctq8_13.947_ctu8_15.163_ctd8_24.316_cqq13_-3.799_cqq11_-3.202_cqu1_6.22_cqd1_12.06_ctq1_-5.011_ctu1_-3.243_ctd1_-4.236'> +2.3319533e+02 </wgt>
<wgt id='eftrwgt102_ctg_0.556_cqq83_-5.267_cqq81_-10.439_cqu8_2.364_cqd8_0.675_ctq8_-12.861_ctu8_-7.633_ctd8_-19.227_cqq13_7.964_cqq11_-4.314_cqu1_-5.928_cqd1_-4.03_ctq1_5.914_ctu1_5.907_ctd1_11.347'> +2.0713052e+01 </wgt>
<wgt id='eftrwgt103_ctg_0.125_cqq83_-12.646_cqq81_10.46_cqu8_18.952_cqd8_-13.688_ctq8_-9.243_ctu8_-14.143_ctd8_-9.888_cqq13_-8.119_cqq11_3.122_cqu1_8.657_cqd1_7.658_ctq1_-7.962_ctu1_3.664_ctd1_-2.552'> +1.0697013e+02 </wgt>
<wgt id='eftrwgt104_ctg_-0.763_cqq83_-3.804_cqq81_11.607_cqu8_-13.419_cqd8_14.176_ctq8_-9.066_ctu8_-15.02_ctd8_-4.358_cqq13_-1.193_cqq11_-6.481_cqu1_4.998_cqd1_-9.789_ctq1_1.777_ctu1_10.322_ctd1_2.64'> +1.5488839e+02 </wgt>
<wgt id='eftrwgt105_ctg_-1.088_cqq83_12.665_cqq81_-11.087_cqu8_18.548_cqd8_-4.797_ctq8_-2.92_ctu8_2.89_ctd8_13.714_cqq13_6.529_cqq11_2.903_cqu1_9.448_cqd1_-11.012_ctq1_-0.553_ctu1_-10.792_ctd1_7.312'> +1.7294361e+02 </wgt>
<wgt id='eftrwgt106_ctg_-0.66_cqq83_13.87_cqq81_-10.837_cqu8_-12.598_cqd8_7.858_ctq8_-12.118_ctu8_-7.151_ctd8_16.078_cqq13_4.226_cqq11_0.29_cqu1_-10.828_cqd1_12.788_ctq1_7.2_ctu1_2.803_ctd1_-12.185'> +2.4686613e+02 </wgt>
<wgt id='eftrwgt107_ctg_0.987_cqq83_4.124_cqq81_-7.722_cqu8_-17.904_cqd8_-9.465_ctq8_-8.335_ctu8_11.217_ctd8_22.691_cqq13_-5.276_cqq11_2.989_cqu1_7.593_cqd1_-5.045_ctq1_1.607_ctu1_3.552_ctd1_13.817'> +6.2002605e+01 </wgt>
<wgt id='eftrwgt108_ctg_-0.161_cqq83_-2.662_cqq81_-3.151_cqu8_9.405_cqd8_-12.787_ctq8_6.797_ctu8_12.29_ctd8_-20.381_cqq13_6.286_cqq11_-1.665_cqu1_-10.66_cqd1_13.551_ctq1_-0.592_ctu1_-10.77_ctd1_-11.103'> +2.5411982e+02 </wgt>
<wgt id='eftrwgt109_ctg_-0.866_cqq83_17.321_cqq81_-1.402_cqu8_15.303_cqd8_-9.712_ctq8_-2.135_ctu8_4.236_ctd8_-2.625_cqq13_6.154_cqq11_-5.703_cqu1_2.095_cqd1_6.678_ctq1_-8.391_ctu1_-3.925_ctd1_1.624'> +7.1835833e+01 </wgt>
<wgt id='eftrwgt110_ctg_0.155_cqq83_-16.958_cqq81_-11.926_cqu8_-4.429_cqd8_12.271_ctq8_12.349_ctu8_9.754_ctd8_-5.943_cqq13_1.387_cqq11_-2.925_cqu1_8.241_cqd1_-0.988_ctq1_8.274_ctu1_-10.609_ctd1_-7.304'> +3.7716846e+01 </wgt>
<wgt id='eftrwgt111_ctg_-1.065_cqq83_14.73_cqq81_-1.172_cqu8_-15.353_cqd8_0.237_ctq8_10.108_ctu8_4.492_ctd8_24.01_cqq13_-1.328_cqq11_0.667_cqu1_-2.509_cqd1_0.719_ctq1_0.384_ctu1_-8.496_ctd1_-3.168'> +7.5049876e-01 </wgt>
<wgt id='eftrwgt112_ctg_0.963_cqq83_-9.182_cqq81_0.049_cqu8_8.605_cqd8_-14.263_ctq8_8.142_ctu8_-8.43_ctd8_-11.958_cqq13_-2.649_cqq11_1.046_cqu1_6.616_cqd1_7.998_ctq1_1.189_ctu1_-6.255_ctd1_6.95'> +1.1705344e+02 </wgt>
<wgt id='eftrwgt113_ctg_1.026_cqq83_-11.499_cqq81_-5.535_cqu8_17.173_cqd8_3.883_ctq8_-9.651_ctu8_-11.427_ctd8_18.837_cqq13_6.015_cqq11_6.509_cqu1_10.344_cqd1_-2.658_ctq1_-2.985_ctu1_-3.104_ctd1_9.041'> +1.1561544e+01 </wgt>
<wgt id='eftrwgt114_ctg_1.167_cqq83_14.15_cqq81_-2.248_cqu8_-3.57_cqd8_15.163_ctq8_-12.657_ctu8_5.129_ctd8_6.614_cqq13_-6.863_cqq11_-3.391_cqu1_-0.777_cqd1_-2.994_ctq1_1.952_ctu1_-7.447_ctd1_11.847'> +6.3096259e+01 </wgt>
<wgt id='eftrwgt115_ctg_0.982_cqq83_-16.13_cqq81_-2.864_cqu8_-3.251_cqd8_13.648_ctq8_-3.377_ctu8_-15.255_ctd8_-20.505_cqq13_6.864_cqq11_6.065_cqu1_1.403_cqd1_13.412_ctq1_6.891_ctu1_-5.305_ctd1_6.959'> +3.1467751e+02 </wgt>
<wgt id='eftrwgt116_ctg_0.484_cqq83_-5.877_cqq81_-0.844_cqu8_-8.226_cqd8_-12.543_ctq8_-7.938_ctu8_-14.308_ctd8_-16.759_cqq13_3.295_cqq11_-4.935_cqu1_1.553_cqd1_-2.747_ctq1_1.896_ctu1_-2.598_ctd1_1.468'> +5.4473045e+01 </wgt>
<wgt id='eftrwgt117_ctg_-0.766_cqq83_13.005_cqq81_4.278_cqu8_-5.789_cqd8_-2.642_ctq8_1.928_ctu8_-17.627_ctd8_13.206_cqq13_-3.352_cqq11_-4.623_cqu1_1.281_cqd1_-0.353_ctq1_-7.888_ctu1_-2.739_ctd1_-3.691'> +1.8896952e+00 </wgt>
<wgt id='eftrwgt118_ctg_-0.026_cqq83_16.863_cqq81_-3.657_cqu8_-14.653_cqd8_19.452_ctq8_-11.093_ctu8_7.169_ctd8_12.713_cqq13_2.219_cqq11_6.829_cqu1_-1.47_cqd1_13.329_ctq1_-8.726_ctu1_4.506_ctd1_-6.731'> +3.7179101e+02 </wgt>
<wgt id='eftrwgt119_ctg_-0.927_cqq83_14.324_cqq81_12.494_cqu8_-15.766_cqd8_-22.63_ctq8_7.771_ctu8_17.012_ctd8_-4.27_cqq13_-4.263_cqq11_7.096_cqu1_5.583_cqd1_7.465_ctq1_3.841_ctu1_9.204_ctd1_12.312'> +1.7471283e+02 </wgt>
<wgt id='eftrwgt120_ctg_-1.301_cqq83_2.61_cqq81_-0.228_cqu8_-13.019_cqd8_-7.21_ctq8_-10.88_ctu8_-12.7_ctd8_-9.515_cqq13_3.421_cqq11_-0.285_cqu1_-1.252_cqd1_-3.317_ctq1_7.885_ctu1_3.534_ctd1_11.001'> +3.0789135e+01 </wgt>
<wgt id='eftrwgt121_ctg_0.544_cqq83_-11.95_cqq81_-0.044_cqu8_-3.43_cqd8_-3.87_ctq8_-7.539_ctu8_-14.796_ctd8_-19.179_cqq13_3.035_cqq11_-7.307_cqu1_1.661_cqd1_-9.45_ctq1_-2.9_ctu1_7.446_ctd1_-4.846'> +1.2759711e+02 </wgt>
<wgt id='eftrwgt122_ctg_0.077_cqq83_12.997_cqq81_8.942_cqu8_-12.333_cqd8_-21.55_ctq8_8.94_ctu8_12.874_ctd8_-23.03_cqq13_7.882_cqq11_-0.681_cqu1_1.4_cqd1_6.361_ctq1_-0.884_ctu1_-0.375_ctd1_1.214'> +1.4760664e+02 </wgt>
<wgt id='eftrwgt123_ctg_-1.357_cqq83_9.311_cqq81_-6.821_cqu8_-3.271_cqd8_-16.074_ctq8_9.326_ctu8_14.404_ctd8_-2.447_cqq13_3.173_cqq11_-3.404_cqu1_2.525_cqd1_5.494_ctq1_-7.91_ctu1_-0.974_ctd1_4.439'> +9.0056574e+01 </wgt>
<wgt id='eftrwgt124_ctg_-1.223_cqq83_-12.321_cqq81_-7.848_cqu8_-2.265_cqd8_-5.02_ctq8_-13.565_ctu8_-9.074_ctd8_2.046_cqq13_-4.347_cqq11_5.557_cqu1_1.21_cqd1_-2.046_ctq1_-6.903_ctu1_-4.355_ctd1_2.297'> +1.3162956e+01 </wgt>
<wgt id='eftrwgt125_ctg_0.961_cqq83_6.0_cqq81_5.561_cqu8_-3.626_cqd8_-19.356_ctq8_-2.864_ctu8_-0.243_ctd8_23.255_cqq13_-8.112_cqq11_-5.996_cqu1_9.108_cqd1_-10.685_ctq1_-6.426_ctu1_-1.269_ctd1_3.35'> +2.7518994e+02 </wgt>
<wgt id='eftrwgt126_ctg_0.285_cqq83_-16.325_cqq81_0.476_cqu8_-16.347_cqd8_22.521_ctq8_-0.468_ctu8_-2.288_ctd8_22.57_cqq13_-7.864_cqq11_-2.689_cqu1_6.85_cqd1_8.701_ctq1_6.612_ctu1_10.799_ctd1_5.338'> +2.6130157e+02 </wgt>
<wgt id='eftrwgt127_ctg_-1.378_cqq83_-17.314_cqq81_-12.704_cqu8_-6.427_cqd8_-12.718_ctq8_4.311_ctu8_-7.334_ctd8_-24.506_cqq13_-8.01_cqq11_5.874_cqu1_0.468_cqd1_8.191_ctq1_-0.277_ctu1_8.517_ctd1_-7.478'> +1.1185893e+02 </wgt>
<wgt id='eftrwgt128_ctg_1.18_cqq83_-1.471_cqq81_2.433_cqu8_10.198_cqd8_23.306_ctq8_-12.125_ctu8_16.403_ctd8_18.18_cqq13_7.781_cqq11_-2.869_cqu1_-7.593_cqd1_-6.942_ctq1_0.572_ctu1_3.932_ctd1_-1.468'> +1.7597784e+02 </wgt>
<wgt id='eftrwgt129_ctg_0.941_cqq83_-4.592_cqq81_6.49_cqu8_-5.317_cqd8_16.947_ctq8_12.635_ctu8_-5.132_ctd8_22.403_cqq13_2.333_cqq11_-2.444_cqu1_7.188_cqd1_-3.684_ctq1_-5.675_ctu1_-4.027_ctd1_-1.358'> +8.1546620e+01 </wgt>
<wgt id='eftrwgt130_ctg_-0.208_cqq83_-17.622_cqq81_-2.397_cqu8_15.786_cqd8_15.249_ctq8_-1.44_ctu8_10.097_ctd8_-10.056_cqq13_-3.196_cqq11_4.986_cqu1_-0.332_cqd1_-13.619_ctq1_2.563_ctu1_1.892_ctd1_2.648'> +2.6988123e+02 </wgt>
<wgt id='eftrwgt131_ctg_1.247_cqq83_-17.63_cqq81_-10.818_cqu8_5.208_cqd8_0.681_ctq8_12.537_ctu8_-14.866_ctd8_3.091_cqq13_2.337_cqq11_-5.924_cqu1_5.379_cqd1_5.986_ctq1_-5.666_ctu1_10.553_ctd1_1.395'> +4.8278257e+01 </wgt>
<wgt id='eftrwgt132_ctg_-0.801_cqq83_7.262_cqq81_9.212_cqu8_-8.732_cqd8_-8.091_ctq8_-1.906_ctu8_3.948_ctd8_13.123_cqq13_2.692_cqq11_8.195_cqu1_0.96_cqd1_-1.571_ctq1_5.243_ctu1_-1.861_ctd1_-9.371'> +2.1273129e+01 </wgt>
<wgt id='eftrwgt133_ctg_-1.257_cqq83_16.117_cqq81_-9.715_cqu8_-7.571_cqd8_1.07_ctq8_2.477_ctu8_-7.002_ctd8_13.477_cqq13_-0.711_cqq11_7.763_cqu1_-6.041_cqd1_-7.251_ctq1_-2.998_ctu1_-2.904_ctd1_-12.567'> +6.9069883e+01 </wgt>
<wgt id='eftrwgt134_ctg_1.354_cqq83_-7.657_cqq81_-1.021_cqu8_-16.291_cqd8_1.184_ctq8_-2.275_ctu8_16.917_ctd8_-5.942_cqq13_5.969_cqq11_3.289_cqu1_-10.263_cqd1_4.064_ctq1_8.35_ctu1_-0.11_ctd1_0.257'> +2.3053289e+01 </wgt>
<wgt id='eftrwgt135_ctg_-0.715_cqq83_-9.614_cqq81_-10.763_cqu8_9.461_cqd8_21.044_ctq8_0.83_ctu8_16.276_ctd8_17.397_cqq13_7.427_cqq11_-7.592_cqu1_5.575_cqd1_-12.777_ctq1_0.413_ctu1_-0.337_ctd1_5.614'> +2.8420253e+02 </wgt>
<wgt id='eftrwgt136_ctg_1.148_cqq83_9.105_cqq81_7.25_cqu8_15.489_cqd8_-14.113_ctq8_-1.534_ctu8_-4.722_ctd8_-14.085_cqq13_7.64_cqq11_5.644_cqu1_6.289_cqd1_-3.464_ctq1_-4.467_ctu1_10.661_ctd1_-10.103'> +7.3368811e+01 </wgt>
<wgt id='eftrwgt137_ctg_0.519_cqq83_-3.88_cqq81_5.428_cqu8_-11.688_cqd8_12.458_ctq8_5.584_ctu8_4.192_ctd8_-4.494_cqq13_0.22_cqq11_6.429_cqu1_0.379_cqd1_-2.464_ctq1_3.48_ctu1_8.707_ctd1_10.184'> +4.2501579e+01 </wgt>
<wgt id='eftrwgt138_ctg_0.044_cqq83_15.014_cqq81_-2.24_cqu8_-0.07_cqd8_15.723_ctq8_4.233_ctu8_15.378_ctd8_22.326_cqq13_5.742_cqq11_-7.973_cqu1_5.127_cqd1_8.3_ctq1_-2.237_ctu1_-6.818_ctd1_9.184'> +1.7616631e+02 </wgt>
<wgt id='eftrwgt139_ctg_0.536_cqq83_3.108_cqq81_-2.815_cqu8_17.298_cqd8_-20.517_ctq8_-0.558_ctu8_5.522_ctd8_9.105_cqq13_7.706_cqq11_-1.121_cqu1_6.904_cqd1_-8.677_ctq1_0.168_ctu1_4.991_ctd1_3.884'> +2.3144162e+02 </wgt>
<wgt id='eftrwgt140_ctg_-1.222_cqq83_14.489_cqq81_7.936_cqu8_-5.001_cqd8_-7.099_ctq8_0.704_ctu8_-16.077_ctd8_15.282_cqq13_3.777_cqq11_4.884_cqu1_-3.897_cqd1_-3.233_ctq1_-0.56_ctu1_1.21_ctd1_-11.922'> +2.9895113e+01 </wgt>
<wgt id='eftrwgt141_ctg_-0.595_cqq83_-16.264_cqq81_7.534_cqu8_-4.512_cqd8_17.409_ctq8_3.217_ctu8_-8.193_ctd8_8.464_cqq13_-7.686_cqq11_-1.06_cqu1_4.135_cqd1_9.485_ctq1_-2.481_ctu1_4.42_ctd1_3.636'> +2.2279946e+02 </wgt>
<wgt id='eftrwgt142_ctg_1.208_cqq83_4.059_cqq81_6.781_cqu8_-5.717_cqd8_-21.408_ctq8_0.083_ctu8_14.943_ctd8_11.388_cqq13_0.694_cqq11_-5.103_cqu1_-7.402_cqd1_13.43_ctq1_3.406_ctu1_2.945_ctd1_5.188'> +3.0596670e+02 </wgt>
<wgt id='eftrwgt143_ctg_0.787_cqq83_2.859_cqq81_-12.404_cqu8_17.905_cqd8_18.147_ctq8_5.594_ctu8_13.171_ctd8_-8.3_cqq13_-1.709_cqq11_3.715_cqu1_-2.267_cqd1_0.319_ctq1_-2.513_ctu1_-6.093_ctd1_0.66'> +8.4578119e+01 </wgt>
<wgt id='eftrwgt144_ctg_0.369_cqq83_12.119_cqq81_10.451_cqu8_-4.308_cqd8_10.751_ctq8_2.903_ctu8_-16.453_ctd8_12.168_cqq13_-7.8_cqq11_-4.495_cqu1_-7.968_cqd1_-11.778_ctq1_-0.673_ctu1_9.838_ctd1_7.574'> +1.9156304e+02 </wgt>
<wgt id='eftrwgt145_ctg_-0.314_cqq83_-7.538_cqq81_9.523_cqu8_-0.965_cqd8_7.921_ctq8_-3.669_ctu8_-17.137_ctd8_13.302_cqq13_-0.272_cqq11_-1.659_cqu1_-4.888_cqd1_2.565_ctq1_-4.075_ctu1_7.665_ctd1_4.628'> +2.8444337e+01 </wgt>
<wgt id='eftrwgt146_ctg_-0.028_cqq83_17.018_cqq81_4.288_cqu8_2.423_cqd8_9.91_ctq8_-1.803_ctu8_-7.374_ctd8_-22.743_cqq13_1.412_cqq11_1.518_cqu1_-5.031_cqd1_4.621_ctq1_-2.805_ctu1_-7.971_ctd1_2.504'> +6.0476011e+01 </wgt>
<wgt id='eftrwgt147_ctg_0.512_cqq83_9.531_cqq81_-2.016_cqu8_15.155_cqd8_-1.954_ctq8_-13.237_ctu8_1.868_ctd8_5.908_cqq13_-7.773_cqq11_7.257_cqu1_4.489_cqd1_2.963_ctq1_-3.777_ctu1_5.458_ctd1_-6.432'> +1.1391868e+01 </wgt>
<wgt id='eftrwgt148_ctg_-0.482_cqq83_17.097_cqq81_10.457_cqu8_-6.705_cqd8_-13.185_ctq8_-4.371_ctu8_14.509_ctd8_-13.32_cqq13_1.822_cqq11_0.354_cqu1_7.002_cqd1_10.541_ctq1_5.822_ctu1_5.744_ctd1_-13.15'> +1.6654792e+02 </wgt>
<wgt id='eftrwgt149_ctg_-0.905_cqq83_0.86_cqq81_-13.515_cqu8_11.771_cqd8_-1.866_ctq8_13.439_ctu8_0.144_ctd8_13.675_cqq13_-5.569_cqq11_-7.731_cqu1_1.84_cqd1_3.468_ctq1_-5.507_ctu1_1.982_ctd1_-13.061'> +1.5286854e+01 </wgt>
<wgt id='eftrwgt150_ctg_0.0_cqq83_-11.426_cqq81_-6.524_cqu8_-16.088_cqd8_-21.27_ctq8_10.524_ctu8_14.233_ctd8_17.255_cqq13_4.89_cqq11_-4.416_cqu1_4.918_cqd1_-11.767_ctq1_1.268_ctu1_3.231_ctd1_-6.475'> +3.3489314e+02 </wgt>
<wgt id='eftrwgt151_ctg_-0.918_cqq83_-17.499_cqq81_-6.826_cqu8_10.016_cqd8_16.971_ctq8_1.599_ctu8_16.783_ctd8_5.312_cqq13_-2.351_cqq11_-1.209_cqu1_0.269_cqd1_-8.867_ctq1_-7.829_ctu1_-1.326_ctd1_-0.175'> +1.5271460e+02 </wgt>
<wgt id='eftrwgt152_ctg_-0.246_cqq83_8.939_cqq81_-6.847_cqu8_-18.344_cqd8_21.999_ctq8_6.606_ctu8_9.509_ctd8_17.198_cqq13_-1.071_cqq11_7.466_cqu1_-6.387_cqd1_-1.912_ctq1_8.495_ctu1_-3.261_ctd1_8.87'> +1.2121651e+02 </wgt>
<wgt id='eftrwgt153_ctg_0.903_cqq83_-16.714_cqq81_4.491_cqu8_13.339_cqd8_3.836_ctq8_10.658_ctu8_1.169_ctd8_-12.868_cqq13_-4.118_cqq11_5.124_cqu1_5.936_cqd1_-5.521_ctq1_-6.529_ctu1_-3.471_ctd1_-8.961'> +4.0989479e+01 </wgt>
<wgt id='eftrwgt154_ctg_-0.773_cqq83_-11.295_cqq81_11.399_cqu8_12.409_cqd8_-7.958_ctq8_-6.63_ctu8_17.921_ctd8_-4.387_cqq13_-1.075_cqq11_-3.648_cqu1_0.733_cqd1_9.925_ctq1_-5.979_ctu1_6.286_ctd1_-8.945'> +1.3225970e+02 </wgt>
<wgt id='eftrwgt155_ctg_-1.155_cqq83_10.436_cqq81_11.789_cqu8_11.375_cqd8_0.293_ctq8_-12.103_ctu8_-1.324_ctd8_-13.307_cqq13_0.647_cqq11_-1.508_cqu1_4.529_cqd1_-4.847_ctq1_-1.864_ctu1_7.458_ctd1_-2.56'> +3.0852336e+01 </wgt>
<wgt id='eftrwgt156_ctg_1.116_cqq83_-1.502_cqq81_7.154_cqu8_-6.575_cqd8_-19.147_ctq8_-2.196_ctu8_15.471_ctd8_-13.501_cqq13_6.413_cqq11_3.8_cqu1_-1.927_cqd1_3.978_ctq1_3.939_ctu1_-0.696_ctd1_7.298'> +1.0009028e+02 </wgt>
<wgt id='eftrwgt157_ctg_-0.739_cqq83_2.709_cqq81_13.851_cqu8_9.744_cqd8_-15.601_ctq8_-3.406_ctu8_0.534_ctd8_13.826_cqq13_-5.94_cqq11_0.154_cqu1_4.119_cqd1_-0.999_ctq1_7.262_ctu1_1.145_ctd1_4.349'> +6.3673009e+01 </wgt>
<wgt id='eftrwgt158_ctg_-0.16_cqq83_8.752_cqq81_-10.353_cqu8_13.772_cqd8_-19.74_ctq8_1.97_ctu8_-17.022_ctd8_-15.946_cqq13_4.368_cqq11_-3.748_cqu1_-3.331_cqd1_1.681_ctq1_0.02_ctu1_3.467_ctd1_11.988'> +9.5682224e+01 </wgt>
<wgt id='eftrwgt159_ctg_-0.773_cqq83_-5.383_cqq81_11.182_cqu8_14.253_cqd8_22.486_ctq8_4.123_ctu8_16.717_ctd8_16.197_cqq13_7.633_cqq11_3.65_cqu1_3.518_cqd1_4.557_ctq1_0.213_ctu1_-8.115_ctd1_5.813'> +1.7277436e+02 </wgt>
<wgt id='eftrwgt160_ctg_-0.954_cqq83_13.029_cqq81_10.509_cqu8_2.914_cqd8_-7.008_ctq8_3.519_ctu8_-4.882_ctd8_-8.587_cqq13_-4.654_cqq11_6.741_cqu1_-8.034_cqd1_8.536_ctq1_7.776_ctu1_8.243_ctd1_-6.062'> +9.8287816e+01 </wgt>
<wgt id='eftrwgt161_ctg_0.783_cqq83_-0.823_cqq81_-10.667_cqu8_6.458_cqd8_-6.599_ctq8_5.205_ctu8_-17.575_ctd8_-8.783_cqq13_-6.096_cqq11_-7.308_cqu1_-4.219_cqd1_4.937_ctq1_-6.352_ctu1_4.953_ctd1_3.017'> +3.7734667e+01 </wgt>
<wgt id='eftrwgt162_ctg_-0.671_cqq83_16.815_cqq81_-12.317_cqu8_1.448_cqd8_10.899_ctq8_4.606_ctu8_-11.122_ctd8_-10.201_cqq13_4.82_cqq11_3.575_cqu1_-8.572_cqd1_11.857_ctq1_5.276_ctu1_-9.587_ctd1_8.531'> +2.3733690e+02 </wgt>
<wgt id='eftrwgt163_ctg_1.242_cqq83_16.122_cqq81_-8.636_cqu8_-5.852_cqd8_7.335_ctq8_-5.7_ctu8_-13.545_ctd8_24.321_cqq13_5.114_cqq11_-6.63_cqu1_-4.255_cqd1_8.437_ctq1_-6.875_ctu1_9.128_ctd1_2.843'> +1.1853095e+02 </wgt>
<wgt id='eftrwgt164_ctg_1.092_cqq83_-5.055_cqq81_-8.599_cqu8_4.203_cqd8_-7.68_ctq8_-11.588_ctu8_0.276_ctd8_17.336_cqq13_-7.727_cqq11_-5.834_cqu1_-7.894_cqd1_-13.963_ctq1_8.207_ctu1_2.956_ctd1_-11.592'> +2.8945533e+02 </wgt>
<wgt id='eftrwgt165_ctg_0.595_cqq83_4.636_cqq81_-0.11_cqu8_-0.581_cqd8_-20.832_ctq8_-0.558_ctu8_4.659_ctd8_14.601_cqq13_-7.948_cqq11_3.039_cqu1_4.976_cqd1_-0.906_ctq1_-5.244_ctu1_-2.665_ctd1_-11.849'> +1.1146921e+02 </wgt>
<wgt id='eftrwgt166_ctg_1.216_cqq83_5.127_cqq81_1.484_cqu8_12.31_cqd8_15.332_ctq8_-1.18_ctu8_2.062_ctd8_7.64_cqq13_-3.138_cqq11_3.748_cqu1_-2.564_cqd1_-4.289_ctq1_4.03_ctu1_7.302_ctd1_-7.704'> +7.4004505e+01 </wgt>
<wgt id='eftrwgt167_ctg_1.033_cqq83_5.72_cqq81_-1.985_cqu8_-0.401_cqd8_0.76_ctq8_-4.788_ctu8_5.904_ctd8_-7.804_cqq13_5.806_cqq11_-6.292_cqu1_-1.952_cqd1_-8.265_ctq1_2.846_ctu1_-6.057_ctd1_7.749'> +8.8631392e+01 </wgt>
<wgt id='eftrwgt168_ctg_-0.37_cqq83_17.55_cqq81_9.651_cqu8_-15.831_cqd8_-2.866_ctq8_-6.609_ctu8_-14.397_ctd8_5.753_cqq13_5.663_cqq11_-8.112_cqu1_-9.915_cqd1_6.099_ctq1_-0.019_ctu1_-1.021_ctd1_-5.252'> +4.8009139e+01 </wgt>
<wgt id='eftrwgt169_ctg_-1.172_cqq83_17.994_cqq81_-4.282_cqu8_-10.241_cqd8_-2.149_ctq8_-9.811_ctu8_-0.052_ctd8_20.563_cqq13_0.796_cqq11_-3.46_cqu1_8.811_cqd1_-11.665_ctq1_2.613_ctu1_-2.034_ctd1_-11.62'> +1.8534058e+02 </wgt>
<wgt id='eftrwgt170_ctg_-1.173_cqq83_-5.111_cqq81_9.87_cqu8_12.84_cqd8_15.747_ctq8_6.145_ctu8_16.166_ctd8_21.901_cqq13_1.621_cqq11_-4.815_cqu1_-6.967_cqd1_-9.672_ctq1_8.708_ctu1_-3.905_ctd1_5.596'> +1.6187492e+02 </wgt>
<wgt id='eftrwgt171_ctg_-0.487_cqq83_-3.728_cqq81_-2.089_cqu8_-8.617_cqd8_-3.165_ctq8_5.221_ctu8_-6.935_ctd8_-10.922_cqq13_2.93_cqq11_-3.943_cqu1_0.026_cqd1_10.454_ctq1_1.412_ctu1_-4.837_ctd1_4.419'> +1.4174290e+02 </wgt>
<wgt id='eftrwgt172_ctg_0.395_cqq83_8.99_cqq81_-3.002_cqu8_-13.401_cqd8_-8.393_ctq8_6.268_ctu8_10.287_ctd8_3.578_cqq13_-0.326_cqq11_0.491_cqu1_-1.452_cqd1_0.292_ctq1_2.055_ctu1_8.333_ctd1_-11.0'> +1.6886369e+01 </wgt>
<wgt id='eftrwgt173_ctg_-0.268_cqq83_-9.609_cqq81_-10.088_cqu8_-10.258_cqd8_2.411_ctq8_-9.923_ctu8_-12.813_ctd8_-11.549_cqq13_-0.115_cqq11_0.881_cqu1_3.83_cqd1_-7.017_ctq1_-5.831_ctu1_5.916_ctd1_9.799'> +6.3150783e+01 </wgt>
<wgt id='eftrwgt174_ctg_0.0_cqq83_14.255_cqq81_-3.162_cqu8_7.632_cqd8_8.455_ctq8_-10.706_ctu8_12.248_ctd8_-7.818_cqq13_-7.674_cqq11_3.169_cqu1_-10.606_cqd1_10.997_ctq1_7.461_ctu1_-1.024_ctd1_-12.78'> +1.9165204e+02 </wgt>
<wgt id='eftrwgt175_ctg_0.97_cqq83_0.362_cqq81_12.475_cqu8_-6.155_cqd8_12.941_ctq8_-11.631_ctu8_12.793_ctd8_5.998_cqq13_5.415_cqq11_3.61_cqu1_3.086_cqd1_11.222_ctq1_-7.83_ctu1_7.604_ctd1_-6.316'> +2.3194359e+02 </wgt>
<wgt id='eftrwgt176_ctg_-0.671_cqq83_9.217_cqq81_12.675_cqu8_-5.504_cqd8_11.909_ctq8_-13.928_ctu8_3.526_ctd8_12.153_cqq13_6.419_cqq11_-4.462_cqu1_-8.472_cqd1_-6.853_ctq1_-5.497_ctu1_9.273_ctd1_7.938'> +8.4753943e+01 </wgt>
<wgt id='eftrwgt177_ctg_-0.305_cqq83_7.149_cqq81_-4.524_cqu8_-16.678_cqd8_-16.144_ctq8_5.076_ctu8_-17.746_ctd8_16.893_cqq13_4.267_cqq11_2.618_cqu1_4.353_cqd1_8.975_ctq1_4.66_ctu1_3.456_ctd1_-10.007'> +1.4670224e+02 </wgt>
<wgt id='eftrwgt178_ctg_-0.022_cqq83_13.793_cqq81_-0.578_cqu8_13.877_cqd8_-10.596_ctq8_10.476_ctu8_5.651_ctd8_8.781_cqq13_7.781_cqq11_-0.157_cqu1_-3.425_cqd1_10.096_ctq1_-6.687_ctu1_-1.677_ctd1_2.543'> +1.4516589e+02 </wgt>
<wgt id='eftrwgt179_ctg_0.497_cqq83_-6.916_cqq81_13.035_cqu8_-5.975_cqd8_12.419_ctq8_5.679_ctu8_-2.58_ctd8_-17.339_cqq13_-3.741_cqq11_-1.097_cqu1_-5.551_cqd1_-0.983_ctq1_-5.692_ctu1_4.263_ctd1_4.456'> +3.8395370e+01 </wgt>
<wgt id='sm_point'> +3.0925139e-03 </wgt>
<wgt id='1001'> +1.1579678e+02 </wgt>
<wgt id='1002'> +9.1283562e+01 </wgt>
<wgt id='1003'> +9.1283562e+01 </wgt>
<wgt id='1004'> +1.1432526e+02 </wgt>
<wgt id='1005'> +8.3462907e+01 </wgt>
<wgt id='1006'> +1.0030687e+02 </wgt>
<wgt id='1007'> +7.9900992e+01 </wgt>
<wgt id='1008'> +7.9900992e+01 </wgt>
<wgt id='1009'> +9.9090099e+01 </wgt>
<wgt id='1010'> +7.3326082e+01 </wgt>
<wgt id='1011'> +1.3522968e+02 </wgt>
<wgt id='1012'> +1.0531847e+02 </wgt>
<wgt id='1013'> +1.0531847e+02 </wgt>
<wgt id='1014'> +1.3341975e+02 </wgt>
<wgt id='1015'> +9.5886452e+01 </wgt>
<wgt id='1016'> +1.0665666e+02 </wgt>
<wgt id='1017'> +8.4332607e+01 </wgt>
<wgt id='1018'> +8.4332607e+01 </wgt>
<wgt id='1019'> +1.0531847e+02 </wgt>
<wgt id='1020'> +7.7201947e+01 </wgt>
<wgt id='1021'> +9.2389404e+01 </wgt>
<wgt id='1022'> +7.3816784e+01 </wgt>
<wgt id='1023'> +7.3816784e+01 </wgt>
<wgt id='1024'> +9.1283562e+01 </wgt>
<wgt id='1025'> +6.7825535e+01 </wgt>
<wgt id='1026'> +1.2455568e+02 </wgt>
<wgt id='1027'> +9.7298798e+01 </wgt>
<wgt id='1028'> +9.7298798e+01 </wgt>
<wgt id='1029'> +1.2290865e+02 </wgt>
<wgt id='1030'> +8.8693541e+01 </wgt>
<wgt id='1031'> +1.2616671e+02 </wgt>
<wgt id='1032'> +9.9090099e+01 </wgt>
<wgt id='1033'> +9.9090099e+01 </wgt>
<wgt id='1034'> +1.2453728e+02 </wgt>
<wgt id='1035'> +9.0491216e+01 </wgt>
<wgt id='1036'> +1.0928963e+02 </wgt>
<wgt id='1037'> +8.6734097e+01 </wgt>
<wgt id='1038'> +8.6734097e+01 </wgt>
<wgt id='1039'> +1.0794124e+02 </wgt>
<wgt id='1040'> +7.9500782e+01 </wgt>
<wgt id='1041'> +1.4733989e+02 </wgt>
<wgt id='1042'> +1.1432526e+02 </wgt>
<wgt id='1043'> +1.1432526e+02 </wgt>
<wgt id='1044'> +1.4533736e+02 </wgt>
<wgt id='1045'> +1.0396093e+02 </wgt>
<wgt id='1046'> +1.3828749e+02 </wgt>
<wgt id='1047'> +9.8787318e+01 </wgt>
<wgt id='1048'> +1.1579678e+02 </wgt>
<wgt id='1049'> +1.1613968e+02 </wgt>
<wgt id='1050'> +1.2895791e+02 </wgt>
<wgt id='1051'> +1.1401258e+02 </wgt>
<wgt id='1052'> +1.0914426e+02 </wgt>
<wgt id='1053'> +1.0694054e+02 </wgt>
<wgt id='1054'> +1.3293660e+02 </wgt>
<wgt id='1055'> +1.0644651e+02 </wgt>
<wgt id='1056'> +1.4155655e+02 </wgt>
<wgt id='1057'> +1.2756871e+02 </wgt>
<wgt id='1058'> +1.4328355e+02 </wgt>
<wgt id='1059'> +9.4797921e+01 </wgt>
<wgt id='1060'> +1.3567640e+02 </wgt>
<wgt id='1061'> +1.1310802e+02 </wgt>
<wgt id='1062'> +1.1340044e+02 </wgt>
<wgt id='1063'> +1.1508725e+02 </wgt>
<wgt id='1064'> +9.4132055e+01 </wgt>
<wgt id='1065'> +1.2174162e+02 </wgt>
<wgt id='1066'> +1.0395527e+02 </wgt>
<wgt id='1067'> +1.4625828e+02 </wgt>
<wgt id='1068'> +1.2941137e+02 </wgt>
<wgt id='1069'> +1.0389227e+02 </wgt>
<wgt id='1070'> +1.4337182e+02 </wgt>
<wgt id='1071'> +1.3399679e+02 </wgt>
<wgt id='1072'> +1.3654418e+02 </wgt>
<wgt id='1073'> +1.1978956e+02 </wgt>
<wgt id='1074'> +7.4317551e+01 </wgt>
<wgt id='1075'> +1.4482278e+02 </wgt>
<wgt id='1076'> +1.3047342e+02 </wgt>
<wgt id='1077'> +1.6655917e+02 </wgt>
<wgt id='1078'> +5.7349099e+01 </wgt>
<wgt id='1079'> +1.0400524e+02 </wgt>
<wgt id='1080'> +9.8146102e+01 </wgt>
<wgt id='1081'> +8.1283663e+01 </wgt>
<wgt id='1082'> +1.4857191e+02 </wgt>
<wgt id='1083'> +4.1655960e+01 </wgt>
<wgt id='1084'> +1.1136034e+02 </wgt>
<wgt id='1085'> +9.9540038e+01 </wgt>
<wgt id='1086'> +8.3600528e+01 </wgt>
<wgt id='1087'> +1.1954715e+02 </wgt>
<wgt id='1088'> +1.2929132e+02 </wgt>
<wgt id='1089'> +1.8315767e+02 </wgt>
<wgt id='1090'> +1.0710601e+02 </wgt>
<wgt id='1091'> +7.3970962e+01 </wgt>
<wgt id='1092'> +1.2422040e+02 </wgt>
<wgt id='1093'> +1.1939830e+02 </wgt>
<wgt id='1094'> +8.8732928e+01 </wgt>
<wgt id='1095'> +1.1006212e+02 </wgt>
<wgt id='1096'> +1.0309565e+02 </wgt>
<wgt id='1097'> +7.9837692e+01 </wgt>
<wgt id='1098'> +1.3033629e+02 </wgt>
<wgt id='1099'> +9.7027649e+01 </wgt>
<wgt id='1100'> +1.2802173e+02 </wgt>
<wgt id='1101'> +1.1007395e+02 </wgt>
<wgt id='1102'> +1.2094943e+02 </wgt>
<wgt id='1103'> +9.1263508e+01 </wgt>
<wgt id='1104'> +9.6509160e+01 </wgt>
<wgt id='1105'> +1.0347095e+02 </wgt>
<wgt id='1106'> +1.0984855e+02 </wgt>
<wgt id='1107'> +1.1684313e+02 </wgt>
<wgt id='1108'> +1.0390743e+02 </wgt>
<wgt id='1109'> +9.6141104e+01 </wgt>
<wgt id='1110'> +9.2619670e+01 </wgt>
<wgt id='1111'> +1.1192979e+02 </wgt>
<wgt id='1112'> +1.2804167e+02 </wgt>
<wgt id='1113'> +1.2087538e+02 </wgt>
<wgt id='1114'> +1.1568204e+02 </wgt>
<wgt id='1115'> +1.0657504e+02 </wgt>
<wgt id='1116'> +1.1916421e+02 </wgt>
<wgt id='1117'> +1.0954607e+02 </wgt>
<wgt id='1118'> +1.1101676e+02 </wgt>
<wgt id='1119'> +1.1798464e+02 </wgt>
<wgt id='1120'> +1.0719267e+02 </wgt>
<wgt id='1121'> +1.2022029e+02 </wgt>
<wgt id='1122'> +1.2061759e+02 </wgt>
<wgt id='1123'> +1.1979967e+02 </wgt>
<wgt id='1124'> +1.1417185e+02 </wgt>
<wgt id='1125'> +1.1304843e+02 </wgt>
<wgt id='1126'> +1.2775552e+02 </wgt>
<wgt id='1127'> +1.0324308e+02 </wgt>
<wgt id='1128'> +1.1080386e+02 </wgt>
<wgt id='1129'> +1.2817163e+02 </wgt>
<wgt id='1130'> +1.1414921e+02 </wgt>
<wgt id='1131'> +1.1253766e+02 </wgt>
<wgt id='1132'> +1.1226405e+02 </wgt>
<wgt id='1133'> +1.1840944e+02 </wgt>
<wgt id='1134'> +1.1610369e+02 </wgt>
<wgt id='1135'> +1.1335882e+02 </wgt>
<wgt id='1136'> +1.1409240e+02 </wgt>
<wgt id='1137'> +1.1141690e+02 </wgt>
<wgt id='1138'> +1.2435823e+02 </wgt>
<wgt id='1139'> +1.1986463e+02 </wgt>
<wgt id='1140'> +1.1293758e+02 </wgt>
<wgt id='1141'> +1.1866319e+02 </wgt>
<wgt id='1142'> +1.0866628e+02 </wgt>
<wgt id='1143'> +1.1191897e+02 </wgt>
<wgt id='1144'> +1.0983097e+02 </wgt>
<wgt id='1145'> +1.1131687e+02 </wgt>
<wgt id='1146'> +1.1511121e+02 </wgt>
<wgt id='1147'> +1.1665806e+02 </wgt>
<wgt id='1148'> +1.1579678e+02 </wgt>
<wgt id='1149'> +1.1526312e+02 </wgt>
<wgt id='1150'> +1.2075409e+02 </wgt>
<wgt id='1151'> +1.1579678e+02 </wgt>
<wgt id='1152'> +2.3332407e+02 </wgt>
<wgt id='1153'> +1.3245661e+02 </wgt>
<wgt id='1154'> +1.7410857e+01 </wgt>
<wgt id='1155'> +1.3792964e+03 </wgt>
<wgt id='1156'> +3.2965719e+02 </wgt>
<wgt id='1157'> +1.3370622e+02 </wgt>
<wgt id='1158'> +1.1439359e+02 </wgt>
<wgt id='1159'> +4.2722426e+00 </wgt>
<wgt id='1160'> +1.2396255e+02 </wgt>
<wgt id='1161'> -7.4247159e+01 </wgt>
<wgt id='1162'> -2.8460893e+02 </wgt>
<wgt id='1163'> -6.9773264e+00 </wgt>
<wgt id='1164'> -1.0455591e+02 </wgt>
<wgt id='1165'> +3.4947147e+02 </wgt>
<wgt id='1166'> -1.2818644e+02 </wgt>
<wgt id='1167'> -1.1144252e+02 </wgt>
<wgt id='1168'> +3.7031230e+02 </wgt>
<wgt id='1169'> -5.0973275e+01 </wgt>
<wgt id='1170'> +1.3993408e+02 </wgt>
<wgt id='1171'> +8.4026378e+00 </wgt>
<wgt id='1172'> -8.7698384e+01 </wgt>
<wgt id='1173'> -2.6968939e+01 </wgt>
<wgt id='1174'> +2.2529976e+02 </wgt>
<wgt id='1175'> +2.2825746e+01 </wgt>
<wgt id='1176'> +1.4871401e+02 </wgt>
<wgt id='1177'> +1.7810424e+01 </wgt>
<wgt id='1178'> -2.5116312e+00 </wgt>
<wgt id='1179'> +9.5106755e+01 </wgt>
<wgt id='1180'> +7.1964992e+02 </wgt>
<wgt id='1181'> +3.4647904e+02 </wgt>
<wgt id='1182'> -4.2563079e+02 </wgt>
<wgt id='1183'> -1.9270662e+01 </wgt>
<wgt id='1184'> +4.8264668e+01 </wgt>
<wgt id='1185'> +2.0832708e+02 </wgt>
<wgt id='1186'> -4.4044524e+01 </wgt>
<wgt id='1187'> -7.6372248e+01 </wgt>
<wgt id='1188'> +3.1249765e+02 </wgt>
<wgt id='1189'> +2.0085590e+02 </wgt>
<wgt id='1190'> -8.3258147e+01 </wgt>
<wgt id='1191'> +1.7895993e+02 </wgt>
<wgt id='1192'> +1.1528187e+03 </wgt>
<wgt id='1193'> +1.4620761e+02 </wgt>
<wgt id='1194'> +4.5010283e+01 </wgt>
<wgt id='1195'> +1.7187899e+02 </wgt>
<wgt id='1196'> +1.2048142e+01 </wgt>
<wgt id='1197'> +3.2971722e+02 </wgt>
<wgt id='1198'> +2.7565997e+02 </wgt>
<wgt id='1199'> -2.1075016e+02 </wgt>
<wgt id='1200'> +6.1623337e+02 </wgt>
<wgt id='1201'> -2.7976888e+02 </wgt>
<wgt id='1202'> +1.8409840e+02 </wgt>
<wgt id='1203'> +5.9284446e+01 </wgt>
<wgt id='1204'> +6.5579579e+01 </wgt>
<wgt id='1205'> -3.1686272e+02 </wgt>
<wgt id='1206'> -1.2376961e+01 </wgt>
<wgt id='1207'> +2.2186344e+02 </wgt>
<wgt id='1208'> +3.2553460e+01 </wgt>
<wgt id='1209'> +3.7889353e+01 </wgt>
<wgt id='1210'> +2.0905254e+01 </wgt>
<wgt id='1211'> +1.5675600e+01 </wgt>
<wgt id='1212'> +2.0747266e+02 </wgt>
<wgt id='1213'> -2.5949650e+03 </wgt>
<wgt id='1214'> +2.9495074e+02 </wgt>
<wgt id='1215'> -6.8460940e+01 </wgt>
<wgt id='1216'> -1.2524893e+02 </wgt>
<wgt id='1217'> -1.5150698e+01 </wgt>
<wgt id='1218'> +8.8209810e+01 </wgt>
<wgt id='1219'> +1.7083716e+02 </wgt>
<wgt id='1220'> +1.9844273e+02 </wgt>
<wgt id='1221'> -7.7895982e+00 </wgt>
<wgt id='1222'> -6.6264266e+01 </wgt>
<wgt id='1223'> +7.4235157e+02 </wgt>
<wgt id='1224'> -1.7689141e+00 </wgt>
<wgt id='1225'> +2.0660498e+02 </wgt>
<wgt id='1226'> +6.2066203e+01 </wgt>
<wgt id='1227'> +2.3912631e+01 </wgt>
<wgt id='1228'> +1.9785226e+02 </wgt>
<wgt id='1229'> +4.1520496e+02 </wgt>
<wgt id='1230'> -1.4938333e+02 </wgt>
<wgt id='1231'> -4.9413046e+01 </wgt>
<wgt id='1232'> +1.2079338e+01 </wgt>
<wgt id='1233'> -1.1144252e+02 </wgt>
<wgt id='1234'> +4.8564425e+01 </wgt>
<wgt id='1235'> +2.4394081e+02 </wgt>
<wgt id='1236'> +2.0214049e+01 </wgt>
<wgt id='1237'> -3.6222042e+01 </wgt>
<wgt id='1238'> +4.7471873e+02 </wgt>
<wgt id='1239'> -4.2338907e+01 </wgt>
<wgt id='1240'> -1.7762752e+02 </wgt>
<wgt id='1241'> -4.0475981e+01 </wgt>
<wgt id='1242'> +3.2905500e+01 </wgt>
<wgt id='1243'> +1.0310304e+02 </wgt>
<wgt id='1244'> -4.7896393e-01 </wgt>
<wgt id='1245'> +2.7832917e+02 </wgt>
<wgt id='1246'> +2.8903781e+02 </wgt>
<wgt id='1247'> +1.5060644e+02 </wgt>
<wgt id='1248'> +1.2055397e+01 </wgt>
<wgt id='1249'> +4.6607860e+01 </wgt>
<wgt id='1250'> +6.8796800e+01 </wgt>
<wgt id='1251'> +2.9844191e+02 </wgt>
<wgt id='1252'> +1.0906048e+02 </wgt>
<wgt id='1253'> +1.1510800e+02 </wgt>
<wgt id='1254'> +1.0730134e+02 </wgt>
<wgt id='1255'> +1.0381699e+02 </wgt>
<wgt id='1256'> +1.0376801e+02 </wgt>
<wgt id='1257'> +1.1199793e+02 </wgt>
<wgt id='1258'> +9.6039362e+01 </wgt>
<wgt id='1259'> +1.0946053e+02 </wgt>
<wgt id='1260'> +1.0433161e+02 </wgt>
<wgt id='1261'> +1.0990131e+02 </wgt>
<wgt id='1262'> +1.1047854e+02 </wgt>
<wgt id='1263'> +1.0691632e+02 </wgt>
<wgt id='1264'> +1.0526356e+02 </wgt>
<wgt id='1265'> +1.0748111e+02 </wgt>
<wgt id='1266'> +1.0107430e+02 </wgt>
<wgt id='1267'> +1.1691240e+02 </wgt>
<wgt id='1268'> +1.0032486e+02 </wgt>
<wgt id='1269'> +1.0092899e+02 </wgt>
<wgt id='1270'> +1.1505326e+02 </wgt>
<wgt id='1271'> +1.0501502e+02 </wgt>
<wgt id='1272'> +1.0399696e+02 </wgt>
<wgt id='1273'> +1.0659050e+02 </wgt>
<wgt id='1274'> +1.0662751e+02 </wgt>
<wgt id='1275'> +1.0022095e+02 </wgt>
<wgt id='1276'> +1.1347429e+02 </wgt>
<wgt id='1277'> +1.1178003e+02 </wgt>
<wgt id='1278'> +1.1558365e+02 </wgt>
<wgt id='1279'> +1.0683201e+02 </wgt>
<wgt id='1280'> +9.5518834e+01 </wgt>
<wgt id='1281'> +1.3100378e+02 </wgt>
<wgt id='1282'> +1.3253422e+02 </wgt>
<wgt id='1283'> +9.7866672e+01 </wgt>
<wgt id='1284'> +9.1665600e+01 </wgt>
<wgt id='1285'> +1.6571673e+02 </wgt>
<wgt id='1286'> +8.0231715e+01 </wgt>
<wgt id='1287'> +1.6142023e+02 </wgt>
<wgt id='1288'> +1.3785159e+02 </wgt>
<wgt id='1289'> +8.4577239e+01 </wgt>
<wgt id='1290'> -1.3619918e+01 </wgt>
<wgt id='1291'> +1.0334620e+02 </wgt>
<wgt id='1292'> +1.0055207e+02 </wgt>
<wgt id='1293'> +1.1136020e+02 </wgt>
<wgt id='1294'> +8.7171095e+01 </wgt>
<wgt id='1295'> +1.2294964e+02 </wgt>
<wgt id='1296'> +1.0824382e+02 </wgt>
<wgt id='1297'> +9.8945237e+01 </wgt>
<wgt id='1298'> +1.2739795e+02 </wgt>
<wgt id='1299'> +1.2977488e+02 </wgt>
<wgt id='1300'> +1.4670818e+02 </wgt>
<wgt id='1301'> +1.3931578e+02 </wgt>
<wgt id='1302'> +1.0050941e+02 </wgt>
<wgt id='1303'> +9.8025266e+01 </wgt>
<wgt id='1304'> +1.3064877e+02 </wgt>
<wgt id='1305'> +1.0248911e+02 </wgt>
<wgt id='1306'> +9.2291659e+01 </wgt>
<wgt id='1307'> +8.5335824e+01 </wgt>
<wgt id='1308'> +4.3104239e+01 </wgt>
<wgt id='1309'> +1.0557649e+02 </wgt>
<wgt id='1310'> +1.0158715e+02 </wgt>
<wgt id='1311'> +7.8504309e+01 </wgt>
<wgt id='1312'> +8.6919084e+01 </wgt>
<wgt id='1313'> +1.2559099e+02 </wgt>
<wgt id='1314'> +1.1363777e+02 </wgt>
<wgt id='1315'> +8.8946389e+01 </wgt>
<wgt id='1316'> +1.1529299e+02 </wgt>
<wgt id='1317'> +1.2534411e+02 </wgt>
<wgt id='1318'> +6.5294223e+01 </wgt>
<wgt id='1319'> +1.0819666e+02 </wgt>
<wgt id='1320'> +8.2832104e+01 </wgt>
<wgt id='1321'> +1.1655007e+02 </wgt>
<wgt id='1322'> +9.2285423e+01 </wgt>
<wgt id='1323'> +1.0985326e+02 </wgt>
<wgt id='1324'> +9.7039287e+01 </wgt>
<wgt id='1325'> +1.0150165e+02 </wgt>
<wgt id='1326'> +1.1040573e+02 </wgt>
<wgt id='1327'> +8.5346824e+01 </wgt>
<wgt id='1328'> +1.0668829e+02 </wgt>
<wgt id='1329'> +1.1725193e+02 </wgt>
<wgt id='1330'> +1.1907914e+02 </wgt>
<wgt id='1331'> +1.1361093e+02 </wgt>
<wgt id='1332'> +1.1244894e+02 </wgt>
<wgt id='1333'> +1.0989504e+02 </wgt>
<wgt id='1334'> +1.1253643e+02 </wgt>
<wgt id='1335'> +1.0821816e+02 </wgt>
<wgt id='1336'> +1.0620733e+02 </wgt>
<wgt id='1337'> +1.1313352e+02 </wgt>
<wgt id='1338'> +1.1333627e+02 </wgt>
<wgt id='1339'> +1.1029838e+02 </wgt>
<wgt id='1340'> +1.0424011e+02 </wgt>
<wgt id='1341'> +1.0797277e+02 </wgt>
<wgt id='1342'> +1.0137656e+02 </wgt>
<wgt id='1343'> +1.1335844e+02 </wgt>
<wgt id='1344'> +1.1047294e+02 </wgt>
<wgt id='1345'> +1.0673961e+02 </wgt>
<wgt id='1346'> +1.0688393e+02 </wgt>
<wgt id='1347'> +1.0788383e+02 </wgt>
<wgt id='1348'> +1.0607799e+02 </wgt>
<wgt id='1349'> +1.0208373e+02 </wgt>
<wgt id='1350'> +1.0991625e+02 </wgt>
<wgt id='1351'> +1.1342928e+02 </wgt>
<wgt id='1352'> +1.1061008e+02 </wgt>
<wgt id='1353'> +1.1526312e+02 </wgt>
<wgt id='1354'> +1.2075409e+02 </wgt>
<wgt id='1355'> +1.1056330e+02 </wgt>
<wgt id='1356'> +1.4074777e+02 </wgt>
<wgt id='1357'> +1.0386123e+02 </wgt>
<wgt id='1358'> +9.8885860e+01 </wgt>
<wgt id='1359'> +1.1689103e+02 </wgt>
<wgt id='1360'> +9.4764774e+01 </wgt>
<wgt id='1361'> +1.0722341e+02 </wgt>
<wgt id='1362'> +9.9556515e+01 </wgt>
<wgt id='1363'> +8.1450742e+01 </wgt>
<wgt id='1364'> +7.9109326e+01 </wgt>
<wgt id='1365'> +8.7954249e+01 </wgt>
<wgt id='1366'> +7.3718073e+01 </wgt>
<wgt id='1367'> +7.9516138e+01 </wgt>
<wgt id='1368'> +8.5768081e+01 </wgt>
<wgt id='1369'> +7.1350431e+01 </wgt>
<wgt id='1370'> +7.7902027e+01 </wgt>
<wgt id='1371'> +8.1687395e+01 </wgt>
<wgt id='1372'> +8.0504530e+01 </wgt>
<wgt id='1373'> +7.1723257e+01 </wgt>
<wgt id='1374'> +6.9833357e+01 </wgt>
<wgt id='1375'> +8.4304387e+01 </wgt>
<wgt id='1376'> +8.3783300e+01 </wgt>
<wgt id='1377'> +8.2867730e+01 </wgt>
<wgt id='1378'> +8.0030653e+01 </wgt>
<wgt id='1379'> +9.0642210e+01 </wgt>
<wgt id='1380'> +7.4024677e+01 </wgt>
<wgt id='1381'> +8.1365953e+01 </wgt>
<wgt id='1382'> +7.8320469e+01 </wgt>
<wgt id='1383'> +8.0956712e+01 </wgt>
<wgt id='1384'> +9.4758219e+01 </wgt>
<wgt id='1385'> +8.7061721e+01 </wgt>
<wgt id='1386'> +8.1974191e+01 </wgt>
<wgt id='1387'> +8.6746304e+01 </wgt>
<wgt id='1388'> +7.5205853e+01 </wgt>
<wgt id='1389'> +8.1424612e+01 </wgt>
<wgt id='1390'> +8.3951950e+01 </wgt>
<wgt id='1391'> +7.7880047e+01 </wgt>
<wgt id='1392'> +8.6165626e+01 </wgt>
<wgt id='1393'> +8.1807146e+01 </wgt>
<wgt id='1394'> +5.5920168e+01 </wgt>
<wgt id='1395'> +8.6311111e+01 </wgt>
<wgt id='1396'> +8.5611984e+01 </wgt>
<wgt id='1397'> +7.0682706e+01 </wgt>
<wgt id='1398'> +7.8575375e+01 </wgt>
<wgt id='1399'> +3.0672533e+01 </wgt>
<wgt id='1400'> +1.3385741e+02 </wgt>
<wgt id='1401'> +2.0255416e+01 </wgt>
<wgt id='1402'> +5.5786796e+01 </wgt>
<wgt id='1403'> +4.1643873e+01 </wgt>
<wgt id='1404'> +9.3403726e+01 </wgt>
<wgt id='1405'> +9.3897074e+01 </wgt>
<wgt id='1406'> +6.5263636e+01 </wgt>
<wgt id='1407'> +1.3094241e+02 </wgt>
<wgt id='1408'> +9.5847669e+01 </wgt>
<wgt id='1409'> +1.1270527e+02 </wgt>
<wgt id='1410'> +9.6165503e+01 </wgt>
<wgt id='1411'> +7.8445524e+01 </wgt>
<wgt id='1412'> +1.0498340e+02 </wgt>
<wgt id='1413'> +9.2202644e+01 </wgt>
<wgt id='1414'> +6.7753479e+01 </wgt>
<wgt id='1415'> +1.3245405e+02 </wgt>
<wgt id='1416'> +2.9139280e+01 </wgt>
<wgt id='1417'> +7.2849140e+01 </wgt>
<wgt id='1418'> +5.7867380e+01 </wgt>
<wgt id='1419'> +8.3444807e+01 </wgt>
<wgt id='1420'> +9.6545977e+01 </wgt>
<wgt id='1421'> +1.1072079e+02 </wgt>
<wgt id='1422'> +8.4746076e+01 </wgt>
<wgt id='1423'> +8.4271511e+01 </wgt>
<wgt id='1424'> +9.2280258e+01 </wgt>
<wgt id='1425'> +8.7242349e+01 </wgt>
<wgt id='1426'> +6.8398888e+01 </wgt>
<wgt id='1427'> +8.6800889e+01 </wgt>
<wgt id='1428'> +7.2222069e+01 </wgt>
<wgt id='1429'> +8.7853909e+01 </wgt>
<wgt id='1430'> +8.7885540e+01 </wgt>
<wgt id='1431'> +7.8343703e+01 </wgt>
<wgt id='1432'> +6.9122829e+01 </wgt>
<wgt id='1433'> +9.7719720e+01 </wgt>
<wgt id='1434'> +9.1907055e+01 </wgt>
<wgt id='1435'> +7.8489417e+01 </wgt>
<wgt id='1436'> +9.0428714e+01 </wgt>
<wgt id='1437'> +8.5417421e+01 </wgt>
<wgt id='1438'> +6.5879704e+01 </wgt>
<wgt id='1439'> +6.8391561e+01 </wgt>
<wgt id='1440'> +6.6215032e+01 </wgt>
<wgt id='1441'> +1.1039078e+02 </wgt>
<wgt id='1442'> +9.8569207e+01 </wgt>
<wgt id='1443'> +6.5941361e+01 </wgt>
<wgt id='1444'> +7.0527317e+01 </wgt>
<wgt id='1445'> +7.8534437e+01 </wgt>
<wgt id='1446'> +7.7743116e+01 </wgt>
<wgt id='1447'> +7.1958046e+01 </wgt>
<wgt id='1448'> +8.1788360e+01 </wgt>
<wgt id='1449'> +7.8382310e+01 </wgt>
<wgt id='1450'> +7.7934195e+01 </wgt>
<wgt id='1451'> +9.0579500e+01 </wgt>
<wgt id='1452'> +7.5407090e+01 </wgt>
<wgt id='1453'> +8.3263518e+01 </wgt>
<wgt id='1454'> +8.2968196e+01 </wgt>
<wgt id='1455'> +7.8269376e+01 </wgt>
<wgt id='1456'> +8.6635152e+01 </wgt>
<wgt id='1457'> +7.7179070e+01 </wgt>
<wgt id='1458'> +9.0666769e+01 </wgt>
<wgt id='1459'> +7.5521590e+01 </wgt>
<wgt id='1460'> +8.5893490e+01 </wgt>
<wgt id='1461'> +8.4287651e+01 </wgt>
<wgt id='1462'> +8.5010972e+01 </wgt>
<wgt id='1463'> +8.2251407e+01 </wgt>
<wgt id='1464'> +1.1136993e+02 </wgt>
<wgt id='1465'> +9.0909160e+01 </wgt>
<wgt id='1466'> +2.6744997e-01 </wgt>
<wgt id='1467'> +2.9005136e-01 </wgt>
<wgt id='1468'> +2.3841349e-01 </wgt>
<wgt id='1469'> +2.0158664e-01 </wgt>
<wgt id='1470'> +4.7291269e-01 </wgt>
<wgt id='1471'> +4.4788019e-01 </wgt>
<wgt id='1472'> +2.2150486e-01 </wgt>
<wgt id='1473'> +2.9686871e-01 </wgt>
<wgt id='1474'> +2.4367353e-01 </wgt>
<wgt id='1475'> +2.1898435e-01 </wgt>
<wgt id='1476'> +3.1318367e-01 </wgt>
<wgt id='1477'> +3.2416257e-01 </wgt>
<wgt id='1478'> +2.1218085e-01 </wgt>
<wgt id='1479'> +2.4168803e-01 </wgt>
<wgt id='1480'> +3.6251647e-01 </wgt>
<wgt id='1481'> +3.9575233e-01 </wgt>
<wgt id='1482'> +1.3153197e-01 </wgt>
<wgt id='1483'> +2.8464498e-01 </wgt>
<wgt id='1484'> +2.5010252e-01 </wgt>
<wgt id='1485'> +2.8276095e-01 </wgt>
<wgt id='1486'> +2.5653508e-01 </wgt>
<wgt id='1487'> +3.6775764e-01 </wgt>
<wgt id='1488'> +2.2186736e-01 </wgt>
<wgt id='1489'> +2.9696483e-01 </wgt>
<wgt id='1490'> +2.4066042e-01 </wgt>
<wgt id='1491'> +2.5561551e-01 </wgt>
<wgt id='1492'> +2.7760021e-01 </wgt>
<wgt id='1493'> +2.4250836e-01 </wgt>
<wgt id='1494'> +3.1568740e-01 </wgt>
<wgt id='1495'> +2.9619360e-01 </wgt>
<wgt id='1496'> +2.5177188e-01 </wgt>
<wgt id='1497'> +3.3303588e-01 </wgt>
<wgt id='1498'> +1.9395282e-01 </wgt>
<wgt id='1499'> +3.2393743e-01 </wgt>
<wgt id='1500'> +2.2597939e-01 </wgt>
<wgt id='1501'> +2.2761665e-01 </wgt>
<wgt id='1502'> +3.0601319e-01 </wgt>
<wgt id='1503'> +1.8802127e-01 </wgt>
<wgt id='1504'> +4.0482317e-01 </wgt>
<wgt id='1505'> +2.7356874e-01 </wgt>
<wgt id='1506'> +2.5656469e-01 </wgt>
<wgt id='1507'> +1.4391873e-01 </wgt>
<wgt id='1508'> +4.5097816e-01 </wgt>
<wgt id='1509'> +2.0713696e-01 </wgt>
<wgt id='1510'> +3.8987789e-01 </wgt>
<wgt id='1511'> +3.0235015e-01 </wgt>
<wgt id='1512'> +2.6142362e-01 </wgt>
<wgt id='1513'> +2.0970078e-01 </wgt>
<wgt id='1514'> +3.3509106e-01 </wgt>
<wgt id='1515'> +2.5012328e-01 </wgt>
<wgt id='1516'> +3.0512412e-01 </wgt>
<wgt id='1517'> +2.3917410e-01 </wgt>
<wgt id='1518'> +3.1363888e-01 </wgt>
<wgt id='1519'> +1.8780325e-01 </wgt>
<wgt id='1520'> +1.7712342e-01 </wgt>
<wgt id='1521'> +2.3099611e+00 </wgt>
<wgt id='1522'> +1.0760831e-01 </wgt>
<wgt id='1523'> +2.4532371e-01 </wgt>
<wgt id='1524'> +2.8870003e-01 </wgt>
<wgt id='1525'> +5.0428828e-01 </wgt>
<wgt id='1526'> +5.5998505e-01 </wgt>
<wgt id='1527'> +4.2222770e-01 </wgt>
<wgt id='1528'> +4.5341176e-01 </wgt>
<wgt id='1529'> +5.7575715e-01 </wgt>
<wgt id='1530'> +5.1176468e-01 </wgt>
<wgt id='1531'> +5.1385551e-01 </wgt>
<wgt id='1532'> +4.8630818e-01 </wgt>
<wgt id='1533'> +5.6488395e-01 </wgt>
<wgt id='1534'> +5.6711996e-01 </wgt>
<wgt id='1535'> +4.7046581e-01 </wgt>
<wgt id='1536'> +3.8087255e-01 </wgt>
<wgt id='1537'> +6.1470706e-01 </wgt>
<wgt id='1538'> +6.9933066e-01 </wgt>
<wgt id='1539'> +4.0404180e-01 </wgt>
<wgt id='1540'> +4.1686931e-01 </wgt>
<wgt id='1541'> +5.5445637e-01 </wgt>
<wgt id='1542'> +3.8258562e-01 </wgt>
<wgt id='1543'> +6.9606040e-01 </wgt>
<wgt id='1544'> +1.0665130e+00 </wgt>
<wgt id='1545'> +2.6467030e-01 </wgt>
<wgt id='1546'> +1.2357303e+00 </wgt>
<wgt id='1547'> +1.3674020e-01 </wgt>
<wgt id='1548'> +4.4191628e-01 </wgt>
<wgt id='1549'> +5.8597130e-01 </wgt>
<wgt id='1550'> +5.0429209e-01 </wgt>
<wgt id='1551'> +5.0440866e-01 </wgt>
<wgt id='1552'> +3.9753636e-01 </wgt>
<wgt id='1553'> +7.1616464e-01 </wgt>
<wgt id='1554'> +4.5171614e-01 </wgt>
<wgt id='1555'> +5.2451567e-01 </wgt>
<wgt id='1556'> +4.8988063e-01 </wgt>
<wgt id='1557'> +5.2336685e-01 </wgt>
<wgt id='1558'> +5.1618545e-01 </wgt>
<wgt id='1559'> +4.7893456e-01 </wgt>
<wgt id='1560'> +5.4745605e-01 </wgt>
<wgt id='1561'> +4.6790457e-01 </wgt>
<wgt id='1562'> +9.0325276e-01 </wgt>
<wgt id='1563'> +2.5035364e-01 </wgt>
<wgt id='1564'> +3.4814881e-01 </wgt>
<wgt id='1565'> +6.6652947e-01 </wgt>
<wgt id='1566'> +4.6462158e-01 </wgt>
<wgt id='1567'> +5.6386115e-01 </wgt>
<wgt id='1568'> +8.5856101e-01 </wgt>
<wgt id='1569'> +3.4516940e-01 </wgt>
<wgt id='1570'> +1.2503591e+00 </wgt>
<wgt id='1571'> +3.2535306e-01 </wgt>
<wgt id='1572'> +4.9331506e-01 </wgt>
<wgt id='1573'> +5.2648616e-01 </wgt>
<wgt id='1574'> +4.3567017e-01 </wgt>
<wgt id='1575'> +7.7063600e-01 </wgt>
<wgt id='1576'> +4.8656651e-01 </wgt>
<wgt id='1577'> +4.9806873e-01 </wgt>
<wgt id='1578'> +5.1659456e-01 </wgt>
<wgt id='1579'> +3.7103909e-01 </wgt>
<wgt id='1580'> +5.0495932e+00 </wgt>
<wgt id='1581'> +1.4634218e-01 </wgt>
<wgt id='1582'> +4.9790062e-01 </wgt>
<wgt id='1583'> +5.0260947e-01 </wgt>
<wgt id='1584'> +6.7824075e-01 </wgt>
<wgt id='1585'> +7.3295749e-02 </wgt>
<wgt id='1586'> +7.2878010e-02 </wgt>
<wgt id='1587'> +7.3299817e-02 </wgt>
<wgt id='1588'> +7.2479750e-02 </wgt>
<wgt id='1589'> +7.3198053e-02 </wgt>
<wgt id='1590'> +7.4174375e-02 </wgt>
<wgt id='1591'> +7.2760890e-02 </wgt>
<wgt id='1592'> +7.2951268e-02 </wgt>
<wgt id='1593'> +7.3878693e-02 </wgt>
<wgt id='1594'> +7.3079741e-02 </wgt>
<wgt id='1595'> +7.3478724e-02 </wgt>
<wgt id='1596'> +7.2893126e-02 </wgt>
<wgt id='1597'> +7.3034045e-02 </wgt>
<wgt id='1598'> +7.3454197e-02 </wgt>
<wgt id='1599'> +7.2860014e-02 </wgt>
<wgt id='1600'> +7.2904604e-02 </wgt>
<wgt id='1601'> +7.3298018e-02 </wgt>
<wgt id='1602'> +7.2125770e-02 </wgt>
<wgt id='1603'> +7.4218053e-02 </wgt>
<wgt id='1604'> +7.3044472e-02 </wgt>
<wgt id='1605'> +7.3193915e-02 </wgt>
<wgt id='1606'> +7.2990987e-02 </wgt>
<wgt id='1607'> +7.2256070e-02 </wgt>
<wgt id='1608'> +7.3867486e-02 </wgt>
<wgt id='1609'> +7.2498493e-02 </wgt>
<wgt id='1610'> +7.7913746e-02 </wgt>
<wgt id='1611'> +6.9212797e-02 </wgt>
<wgt id='1612'> +6.9637278e-02 </wgt>
<wgt id='1613'> +7.3102215e-02 </wgt>
<wgt id='1614'> +6.3749424e-02 </wgt>
<wgt id='1615'> +8.6774065e-02 </wgt>
<wgt id='1616'> +5.9549186e-02 </wgt>
<wgt id='1617'> +9.3881019e-02 </wgt>
<wgt id='1618'> +7.8166224e-02 </wgt>
<wgt id='1619'> +6.8504431e-02 </wgt>
<wgt id='1620'> +7.6212650e-02 </wgt>
<wgt id='1621'> +6.8137819e-02 </wgt>
<wgt id='1622'> +7.1566322e-02 </wgt>
<wgt id='1623'> +7.5564236e-02 </wgt>
<wgt id='1624'> +7.0030820e-02 </wgt>
<wgt id='1625'> +7.6527651e-02 </wgt>
<wgt id='1626'> +6.6174646e-02 </wgt>
<wgt id='1627'> +8.2849093e-02 </wgt>
<wgt id='1628'> +7.1963955e-02 </wgt>
<wgt id='1629'> +7.6749956e-02 </wgt>
<wgt id='1630'> +7.2104150e-02 </wgt>
<wgt id='1631'> +7.5775692e-02 </wgt>
<wgt id='1632'> +5.6915385e-02 </wgt>
<wgt id='1633'> +1.0997226e-01 </wgt>
<wgt id='1634'> +6.3235989e-02 </wgt>
<wgt id='1635'> +7.9519986e-02 </wgt>
<wgt id='1636'> +7.1463296e-01 </wgt>
<wgt id='1637'> +7.1320281e-01 </wgt>
<wgt id='1638'> +7.1523192e-01 </wgt>
<wgt id='1639'> +7.1710697e-01 </wgt>
<wgt id='1640'> +7.0982900e-01 </wgt>
<wgt id='1641'> +7.1887470e-01 </wgt>
<wgt id='1642'> +7.1307447e-01 </wgt>
<wgt id='1643'> +7.0902819e-01 </wgt>
<wgt id='1644'> +7.1855613e-01 </wgt>
<wgt id='1645'> +7.1453923e-01 </wgt>
<wgt id='1646'> +7.1475950e-01 </wgt>
<wgt id='1647'> +7.0866260e-01 </wgt>
<wgt id='1648'> +7.1278812e-01 </wgt>
<wgt id='1649'> +7.1568109e-01 </wgt>
<wgt id='1650'> +7.1283123e-01 </wgt>
<wgt id='1651'> +7.1313712e-01 </wgt>
<wgt id='1652'> +7.1115514e-01 </wgt>
<wgt id='1653'> +7.0624176e-01 </wgt>
<wgt id='1654'> +7.1386853e-01 </wgt>
<wgt id='1655'> +7.1162210e-01 </wgt>
<wgt id='1656'> +7.1729487e-01 </wgt>
<wgt id='1657'> +7.0691750e-01 </wgt>
<wgt id='1658'> +7.1436149e-01 </wgt>
<wgt id='1659'> +7.0366013e-01 </wgt>
<wgt id='1660'> +7.2366310e-01 </wgt>
<wgt id='1661'> +7.1178629e-01 </wgt>
<wgt id='1662'> +7.2437289e-01 </wgt>
<wgt id='1663'> +6.8886839e-01 </wgt>
<wgt id='1664'> +7.3200064e-01 </wgt>
<wgt id='1665'> +8.2547084e-01 </wgt>
<wgt id='1666'> +4.8259830e-01 </wgt>
<wgt id='1667'> +6.3761951e-01 </wgt>
<wgt id='1668'> +9.0047088e-01 </wgt>
<wgt id='1669'> +7.5327552e-01 </wgt>
<wgt id='1670'> +6.4287820e-01 </wgt>
<wgt id='1671'> +5.8293099e-01 </wgt>
<wgt id='1672'> +7.8019501e-01 </wgt>
<wgt id='1673'> +7.0602465e-01 </wgt>
<wgt id='1674'> +7.1846023e-01 </wgt>
<wgt id='1675'> +6.6432458e-01 </wgt>
<wgt id='1676'> +7.5095764e-01 </wgt>
<wgt id='1677'> +8.7679556e-01 </wgt>
<wgt id='1678'> +5.2110253e-01 </wgt>
<wgt id='1679'> +7.2419260e-01 </wgt>
<wgt id='1680'> +6.6184110e-01 </wgt>
<wgt id='1681'> +8.9275056e-01 </wgt>
<wgt id='1682'> +5.9708881e-01 </wgt>
<wgt id='1683'> +6.4382644e-01 </wgt>
<wgt id='1684'> +7.4229895e-01 </wgt>
<wgt id='1685'> +9.0198059e-01 </wgt>
<wgt id='1686'> +5.8769111e-01 </wgt>
<wgt id='1687'> +3.3366849e-01 </wgt>
<wgt id='1688'> +6.2911498e-02 </wgt>
<wgt id='1689'> +6.2920662e-02 </wgt>
<wgt id='1690'> +6.2923548e-02 </wgt>
<wgt id='1691'> +6.2814830e-02 </wgt>
<wgt id='1692'> +6.2914388e-02 </wgt>
<wgt id='1693'> +6.3086474e-02 </wgt>
<wgt id='1694'> +6.2624620e-02 </wgt>
<wgt id='1695'> +6.3160539e-02 </wgt>
<wgt id='1696'> +6.2899844e-02 </wgt>
<wgt id='1697'> +6.2423943e-02 </wgt>
<wgt id='1698'> +6.2591153e-02 </wgt>
<wgt id='1699'> +6.3134669e-02 </wgt>
<wgt id='1700'> +6.3558648e-02 </wgt>
<wgt id='1701'> +6.3027348e-02 </wgt>
<wgt id='1702'> +6.2789666e-02 </wgt>
<wgt id='1703'> +6.2039217e-02 </wgt>
<wgt id='1704'> +6.3044478e-02 </wgt>
<wgt id='1705'> +6.2858962e-02 </wgt>
<wgt id='1706'> +5.9002344e-02 </wgt>
<wgt id='1707'> +5.9980298e-02 </wgt>
<wgt id='1708'> +6.9755282e-02 </wgt>
<wgt id='1709'> +6.3837650e-02 </wgt>
<wgt id='1710'> +6.1172803e-02 </wgt>
<wgt id='1711'> +5.7118284e-02 </wgt>
<wgt id='1712'> +6.1575086e-02 </wgt>
<wgt id='1713'> +6.2542413e-02 </wgt>
<wgt id='1714'> +6.2667033e-02 </wgt>
<wgt id='1715'> +7.5967659e-02 </wgt>
<wgt id='1716'> +6.0192060e-02 </wgt>
<wgt id='1717'> +7.2719582e-02 </wgt>
<wgt id='1718'> +2.6487502e+00 </wgt>
<wgt id='1719'> +2.4699877e+00 </wgt>
<wgt id='1720'> +2.3276171e+00 </wgt>
<wgt id='1721'> +1.6385376e+00 </wgt>
<wgt id='1722'> -4.4521800e-02 </wgt>
<wgt id='1723'> +1.3161713e+00 </wgt>
<wgt id='1724'> +3.5972994e+00 </wgt>
<wgt id='1725'> +9.9237016e-01 </wgt>
<wgt id='1726'> +3.4217113e+00 </wgt>
<wgt id='1727'> +1.8914136e+00 </wgt>
<wgt id='1728'> +3.9480261e+00 </wgt>
<wgt id='1729'> +2.2907682e+00 </wgt>
<wgt id='1730'> -6.2020157e+00 </wgt>
<wgt id='1731'> +2.1604500e+00 </wgt>
<wgt id='1732'> +7.2556074e+00 </wgt>
<wgt id='1733'> +1.7131084e-01 </wgt>
<wgt id='1734'> -2.3197996e+00 </wgt>
<wgt id='1735'> +2.0004360e+00 </wgt>
<wgt id='1736'> -2.5430332e-01 </wgt>
<wgt id='1737'> +1.4412786e+00 </wgt>
<wgt id='1738'> +2.4193592e+01 </wgt>
<wgt id='1739'> +3.2106168e+00 </wgt>
<wgt id='1740'> +3.1694202e+00 </wgt>
<wgt id='1741'> +2.8001441e+00 </wgt>
<wgt id='1742'> -5.2369007e-01 </wgt>
<wgt id='1743'> +3.4468356e+00 </wgt>
<wgt id='1744'> +2.0200421e+00 </wgt>
<wgt id='1745'> +1.5315865e+00 </wgt>
<wgt id='1746'> +3.6158291e+00 </wgt>
<wgt id='1747'> -1.9946968e-01 </wgt>
<wgt id='1748'> +2.6192482e+00 </wgt>
<wgt id='1749'> +4.1985131e-03 </wgt>
<wgt id='1750'> +8.9326402e-01 </wgt>
<wgt id='1751'> +2.1166007e-01 </wgt>
<wgt id='1752'> -7.0668937e+00 </wgt>
<wgt id='1753'> -9.1231109e+01 </wgt>
<wgt id='1754'> +2.8493982e+00 </wgt>
<wgt id='1755'> +3.3255026e+01 </wgt>
<wgt id='1756'> +1.7930413e+01 </wgt>
<wgt id='1757'> +2.9304441e+01 </wgt>
<wgt id='1758'> +2.5683527e+00 </wgt>
<wgt id='1759'> +2.7310043e+00 </wgt>
<wgt id='1760'> -2.3575100e+00 </wgt>
<wgt id='1761'> +1.5290788e+01 </wgt>
<wgt id='1762'> +4.6499003e+01 </wgt>
<wgt id='1763'> -3.0652564e+00 </wgt>
<wgt id='1764'> -1.0563588e+01 </wgt>
<wgt id='1765'> +3.2676365e+01 </wgt>
<wgt id='1766'> -5.3211165e+00 </wgt>
<wgt id='1767'> +1.4793830e+00 </wgt>
<wgt id='1768'> +2.9629565e+00 </wgt>
<wgt id='1769'> -7.3233236e+00 </wgt>
<wgt id='1770'> +2.1068919e+00 </wgt>
<wgt id='1771'> +1.3527797e+00 </wgt>
<wgt id='1772'> -7.0071211e-01 </wgt>
<wgt id='1773'> +3.1748999e+00 </wgt>
<wgt id='1774'> +1.8940709e+00 </wgt>
<wgt id='1775'> +1.2292448e+00 </wgt>
<wgt id='1776'> -3.0129911e+00 </wgt>
<wgt id='1777'> +7.2685567e-01 </wgt>
<wgt id='1778'> +2.5606712e+01 </wgt>
<wgt id='1779'> +1.2110595e+02 </wgt>
<wgt id='1780'> -3.1318116e+01 </wgt>
<wgt id='1781'> -8.7892257e-01 </wgt>
<wgt id='1782'> +5.1277537e+00 </wgt>
<wgt id='1783'> +3.6025519e+00 </wgt>
<wgt id='1784'> +1.7915130e+00 </wgt>
<wgt id='1785'> +3.7121929e+00 </wgt>
<wgt id='1786'> +8.1828432e-01 </wgt>
<wgt id='1787'> +9.6467786e-01 </wgt>
<wgt id='1788'> -5.5058669e+00 </wgt>
<wgt id='1789'> +1.5994819e+00 </wgt>
<wgt id='1790'> -1.3076171e+01 </wgt>
<wgt id='1791'> -1.9698497e+00 </wgt>
<wgt id='1792'> +2.9748326e+00 </wgt>
<wgt id='1793'> -1.3512371e+00 </wgt>
<wgt id='1794'> +3.2642586e+00 </wgt>
<wgt id='1795'> +1.3283409e+00 </wgt>
<wgt id='1796'> +1.1821901e+00 </wgt>
<wgt id='1797'> +9.7170717e-01 </wgt>
<wgt id='1798'> +7.1535236e-01 </wgt>
<wgt id='1799'> +2.3874478e+00 </wgt>
<wgt id='1800'> -1.4040815e+01 </wgt>
<wgt id='1801'> -1.9978773e+00 </wgt>
<wgt id='1802'> -1.7080120e+00 </wgt>
<wgt id='1803'> +2.4944058e+00 </wgt>
<wgt id='1804'> +1.0434859e+02 </wgt>
<wgt id='1805'> -2.2763360e-02 </wgt>
<wgt id='1806'> +1.9324838e+00 </wgt>
<wgt id='1807'> +2.9764315e+00 </wgt>
<wgt id='1808'> +7.9799872e+01 </wgt>
<wgt id='1809'> +1.0826460e+00 </wgt>
<wgt id='1810'> +2.2353590e+00 </wgt>
<wgt id='1811'> +7.4559210e-01 </wgt>
<wgt id='1812'> -3.1138250e+00 </wgt>
<wgt id='1813'> +1.9590933e+00 </wgt>
<wgt id='1814'> +2.2720227e+00 </wgt>
<wgt id='1815'> +9.8436420e-01 </wgt>
<wgt id='1816'> +3.6653957e+00 </wgt>
<wgt id='1817'> +2.8084298e+00 </wgt>
<wgt id='1818'> +2.6217170e+00 </wgt>
<wgt id='1819'> -1.0237888e+01 </wgt>
<wgt id='1820'> +2.5643779e+00 </wgt>
<wgt id='1821'> -1.8599754e+00 </wgt>
<wgt id='1822'> -3.6587206e+00 </wgt>
<wgt id='1823'> -1.3367264e+00 </wgt>
<wgt id='1824'> -1.7502274e+00 </wgt>
<wgt id='1825'> -8.1368834e-01 </wgt>
<wgt id='1826'> -2.3516909e+00 </wgt>
<wgt id='1827'> -1.1688917e+00 </wgt>
<wgt id='1828'> -4.7725703e+00 </wgt>
<wgt id='1829'> +1.8895229e+00 </wgt>
<wgt id='1830'> -3.0615976e-02 </wgt>
<wgt id='1831'> -4.4454101e+00 </wgt>
<wgt id='1832'> -5.3809949e+00 </wgt>
<wgt id='1833'> -1.9472681e+00 </wgt>
<wgt id='1834'> +1.6058245e+00 </wgt>
<wgt id='1835'> -3.2150034e+00 </wgt>
<wgt id='1836'> +3.0829702e-01 </wgt>
<wgt id='1837'> -1.7849764e-01 </wgt>
<wgt id='1838'> -3.4217030e+00 </wgt>
<wgt id='1839'> -2.3603706e+00 </wgt>
<wgt id='1840'> -1.9669510e+00 </wgt>
<wgt id='1841'> -2.8170114e+00 </wgt>
<wgt id='1842'> -3.3348274e+00 </wgt>
<wgt id='1843'> +3.8601643e-01 </wgt>
<wgt id='1844'> -2.3471020e+00 </wgt>
<wgt id='1845'> -1.8445763e+00 </wgt>
<wgt id='1846'> +2.3546738e+00 </wgt>
<wgt id='1847'> -1.3993464e+00 </wgt>
<wgt id='1848'> -2.3154237e+00 </wgt>
<wgt id='1849'> -6.3979046e+00 </wgt>
<wgt id='1850'> +2.3693256e+00 </wgt>
<wgt id='1851'> +7.9124773e-02 </wgt>
<wgt id='1852'> -4.0212326e-01 </wgt>
<wgt id='1853'> +2.5447032e+00 </wgt>
<wgt id='1854'> -4.8714856e+00 </wgt>
<wgt id='1855'> -4.9325578e+00 </wgt>
<wgt id='1856'> +4.4703339e-01 </wgt>
<wgt id='1857'> +9.1618584e-01 </wgt>
<wgt id='1858'> +1.6492669e+01 </wgt>
<wgt id='1859'> +1.3267541e-01 </wgt>
<wgt id='1860'> +2.1472225e+00 </wgt>
<wgt id='1861'> -3.7133079e+00 </wgt>
<wgt id='1862'> +1.8182142e+01 </wgt>
<wgt id='1863'> -6.0025081e+00 </wgt>
<wgt id='1864'> +2.1139414e+00 </wgt>
<wgt id='1865'> -3.9687436e+00 </wgt>
<wgt id='1866'> -1.7559629e+01 </wgt>
<wgt id='1867'> +1.7450983e+00 </wgt>
<wgt id='1868'> -8.1329756e+00 </wgt>
<wgt id='1869'> +2.2553766e+00 </wgt>
<wgt id='1870'> -9.6328409e-01 </wgt>
<wgt id='1871'> +2.3013288e+00 </wgt>
<wgt id='1872'> +2.0720590e+00 </wgt>
<wgt id='1873'> +3.7089553e+00 </wgt>
<wgt id='1874'> -9.7281870e+00 </wgt>
<wgt id='1875'> +2.9205641e+00 </wgt>
<wgt id='1876'> -7.5550158e-01 </wgt>
<wgt id='1877'> -6.3879583e+00 </wgt>
<wgt id='1878'> +3.6684355e-01 </wgt>
<wgt id='1879'> +7.7321848e-01 </wgt>
<wgt id='1880'> -1.6434452e+01 </wgt>
<wgt id='1881'> -1.3116130e+00 </wgt>
<wgt id='1882'> -2.7236216e+00 </wgt>
<wgt id='1883'> +1.7064506e+00 </wgt>
<wgt id='1884'> -1.4001331e+01 </wgt>
<wgt id='1885'> -1.1085782e+01 </wgt>
<wgt id='1886'> -9.0816062e+00 </wgt>
<wgt id='1887'> -6.2232032e+00 </wgt>
<wgt id='1888'> -1.0770138e+00 </wgt>
<wgt id='1889'> +6.4513483e-01 </wgt>
<wgt id='1890'> -6.0672028e-01 </wgt>
<wgt id='1891'> -4.6494583e+00 </wgt>
<wgt id='1892'> -3.2147260e+00 </wgt>
<wgt id='1893'> -3.8419304e+00 </wgt>
<wgt id='1894'> +1.2448520e+00 </wgt>
<wgt id='1895'> -4.6773278e+00 </wgt>
<wgt id='1896'> -5.2204826e+00 </wgt>
<wgt id='1897'> +4.2831132e+00 </wgt>
<wgt id='1898'> -7.2693318e+00 </wgt>
<wgt id='1899'> -1.0251405e+00 </wgt>
<wgt id='1900'> -5.6446619e+00 </wgt>
<wgt id='1901'> +1.8880902e+00 </wgt>
<wgt id='1902'> -2.4179581e+00 </wgt>
<wgt id='1903'> +6.8145814e-01 </wgt>
<wgt id='1904'> +1.1411248e+00 </wgt>
<wgt id='1905'> +2.3296479e+00 </wgt>
<wgt id='1906'> -4.3292011e+00 </wgt>
<wgt id='1907'> -2.4992259e+00 </wgt>
<wgt id='1908'> +2.7622582e+00 </wgt>
<wgt id='1909'> +1.2192523e-01 </wgt>
<wgt id='1910'> -3.4588932e+00 </wgt>
<wgt id='1911'> +2.5703741e+00 </wgt>
<wgt id='1912'> -2.8731453e+00 </wgt>
<wgt id='1913'> -3.5179746e+00 </wgt>
<wgt id='1914'> +6.8597095e-01 </wgt>
<wgt id='1915'> -7.0620914e+00 </wgt>
<wgt id='1916'> -8.4624695e+00 </wgt>
<wgt id='1917'> -6.7370736e+00 </wgt>
<wgt id='1918'> -3.8568159e+00 </wgt>
<wgt id='1919'> -5.1119028e+00 </wgt>
<wgt id='1920'> -2.9154223e+00 </wgt>
<wgt id='1921'> -2.0615763e-01 </wgt>
<wgt id='1922'> +3.2512245e+00 </wgt>
<wgt id='1923'> +6.1195859e-01 </wgt>
<wgt id='1924'> +2.6499009e+00 </wgt>
<wgt id='1925'> +2.5381750e+00 </wgt>
<wgt id='1926'> +1.0777851e+00 </wgt>
<wgt id='1927'> -2.0401474e+01 </wgt>
<wgt id='1928'> -4.0580672e-01 </wgt>
<wgt id='1929'> +1.9789355e+00 </wgt>
<wgt id='1930'> +1.8278840e+00 </wgt>
<wgt id='1931'> +2.8800000e-01 </wgt>
<wgt id='1932'> +3.4333947e+00 </wgt>
<wgt id='1933'> +2.2856994e+00 </wgt>
<wgt id='1934'> +1.9955173e+00 </wgt>
<wgt id='1935'> +3.1504777e+00 </wgt>
<wgt id='1936'> +2.6176864e+00 </wgt>
<wgt id='1937'> +3.8637347e+00 </wgt>
<wgt id='1938'> +2.0963312e+00 </wgt>
<wgt id='1939'> +2.6827239e+00 </wgt>
<wgt id='1940'> +3.9450731e+00 </wgt>
<wgt id='1941'> +3.3729027e+00 </wgt>
<wgt id='1942'> +2.4397980e+00 </wgt>
<wgt id='1943'> +3.6821337e+00 </wgt>
<wgt id='1944'> +3.4653993e+00 </wgt>
<wgt id='1945'> +2.6668764e+00 </wgt>
<wgt id='1946'> +2.8023912e+00 </wgt>
<wgt id='1947'> +4.7810447e+00 </wgt>
<wgt id='1948'> +6.8297322e-01 </wgt>
<wgt id='1949'> -1.7332324e+00 </wgt>
<wgt id='1950'> +2.9108425e+00 </wgt>
<wgt id='1951'> +2.8459178e+00 </wgt>
<wgt id='1952'> +2.9560243e+00 </wgt>
<wgt id='1953'> +3.3642702e+00 </wgt>
<wgt id='1954'> +2.8008573e+00 </wgt>
<wgt id='1955'> -1.0237888e+01 </wgt>
<wgt id='1956'> +2.5643779e+00 </wgt>
<wgt id='1957'> -1.8591895e+00 </wgt>
<wgt id='1958'> +3.3761778e-02 </wgt>
<wgt id='1959'> -2.8405879e+00 </wgt>
<wgt id='1960'> +1.9272163e-01 </wgt>
<wgt id='1961'> -6.1717727e+00 </wgt>
<wgt id='1962'> -3.3457958e-01 </wgt>
<wgt id='1963'> -3.0174076e+00 </wgt>
<wgt id='1964'> -8.2879351e-01 </wgt>
<wgt id='1965'> -1.5715635e+00 </wgt>
<wgt id='1966'> -1.1652860e+00 </wgt>
<wgt id='1967'> -3.3142190e+00 </wgt>
<wgt id='1968'> -4.8408341e+00 </wgt>
<wgt id='1969'> +1.2765579e+00 </wgt>
<wgt id='1970'> -1.6402861e+00 </wgt>
<wgt id='1971'> +4.2977813e-01 </wgt>
<wgt id='1972'> -1.7558527e+00 </wgt>
<wgt id='1973'> -3.3135586e-01 </wgt>
<wgt id='1974'> -9.4349283e-01 </wgt>
<wgt id='1975'> -2.3474607e+00 </wgt>
<wgt id='1976'> +2.5075581e-01 </wgt>
<wgt id='1977'> -4.5620500e+00 </wgt>
<wgt id='1978'> -2.7846144e+00 </wgt>
<wgt id='1979'> -2.9626623e+00 </wgt>
<wgt id='1980'> -3.7113481e+00 </wgt>
<wgt id='1981'> -4.6612580e+00 </wgt>
<wgt id='1982'> -9.5408730e-01 </wgt>
<wgt id='1983'> -3.1970927e+00 </wgt>
<wgt id='1984'> -1.7157792e+00 </wgt>
<wgt id='1985'> -7.2209661e+00 </wgt>
<wgt id='1986'> -1.8528788e+00 </wgt>
<wgt id='1987'> -1.5799676e+00 </wgt>
<wgt id='1988'> +3.2512245e+00 </wgt>
<wgt id='1989'> +6.1195859e-01 </wgt>
<wgt id='1990'> +1.0185404e+00 </wgt>
<wgt id='1991'> +1.0216576e+00 </wgt>
<wgt id='1992'> +1.0154275e+00 </wgt>
<wgt id='1993'> +1.0112886e+00 </wgt>
<wgt id='1994'> +1.0258031e+00 </wgt>
<wgt id='1995'> +1.0201429e+00 </wgt>
<wgt id='1996'> +1.0169368e+00 </wgt>
<wgt id='1997'> +9.9673413e-01 </wgt>
<wgt id='1998'> +1.0403644e+00 </wgt>
<wgt id='1999'> +1.0168116e+00 </wgt>
<wgt id='2000'> +1.0196618e+00 </wgt>
<wgt id='2001'> +1.0362640e+00 </wgt>
<wgt id='2002'> +1.0009232e+00 </wgt>
<wgt id='2003'> +1.0293362e+00 </wgt>
<wgt id='2004'> +1.0077643e+00 </wgt>
<wgt id='2005'> +1.0595865e+00 </wgt>
<wgt id='2006'> +9.7890576e-01 </wgt>
<wgt id='2007'> +1.0744829e+00 </wgt>
<wgt id='2008'> +9.6539309e-01 </wgt>
<wgt id='2009'> +1.0771106e+00 </wgt>
<wgt id='2010'> +9.6228070e-01 </wgt>
<wgt id='2011'> +7.6533765e-01 </wgt>
<wgt id='2012'> +1.3570580e+00 </wgt>
<wgt id='2013'> +3.0791565e+00 </wgt>
<wgt id='2014'> +3.4635561e-01 </wgt>
<wgt id='2015'> +1.1012272e+00 </wgt>
<wgt id='2016'> +9.4170345e-01 </wgt>
<wgt id='2017'> +6.8457764e-01 </wgt>
<wgt id='2018'> +1.5202328e+00 </wgt>
<wgt id='2019'> +1.0185404e+00 </wgt>
<wgt id='2020'> +3.4452004e+00 </wgt>
<wgt id='2021'> +2.4955858e-01 </wgt>
<wgt id='2022'> +6.3695576e+00 </wgt>
<wgt id='2023'> +7.7406580e-01 </wgt>
<wgt id='2024'> +6.3528970e-01 </wgt>
<wgt id='2025'> +6.2415410e-01 </wgt>
<wgt id='2026'> +9.5155133e-01 </wgt>
<wgt id='2027'> +1.0109992e+00 </wgt>
<wgt id='2028'> +1.1645856e+00 </wgt>
<wgt id='2029'> +8.3834285e-01 </wgt>
<wgt id='2030'> +2.4400370e+00 </wgt>
<wgt id='2031'> +4.4396536e-01 </wgt>
<wgt id='2032'> +8.7231252e-01 </wgt>
<wgt id='2033'> +1.8177571e-02 </wgt>
<wgt id='2034'> +1.8117364e-02 </wgt>
<wgt id='2035'> +1.8122290e-02 </wgt>
<wgt id='2036'> +1.8091215e-02 </wgt>
<wgt id='2037'> +1.8148498e-02 </wgt>
<wgt id='2038'> +1.8039485e-02 </wgt>
<wgt id='2039'> +1.8200550e-02 </wgt>
<wgt id='2040'> +1.8054941e-02 </wgt>
<wgt id='2041'> +1.8185024e-02 </wgt>
<wgt id='2042'> +1.8165181e-02 </wgt>
<wgt id='2043'> +1.8077043e-02 </wgt>
<wgt id='2044'> +1.8008663e-02 </wgt>
<wgt id='2045'> +1.8228548e-02 </wgt>
<wgt id='2046'> +1.8697058e-02 </wgt>
<wgt id='2047'> +1.7566524e-02 </wgt>
<wgt id='2048'> +1.8323747e-02 </wgt>
<wgt id='2049'> +1.7909288e-02 </wgt>
<wgt id='2050'> +1.7419427e-02 </wgt>
<wgt id='2051'> +1.8982594e-02 </wgt>
<wgt id='2052'> +1.8901139e-02 </wgt>
<wgt id='2053'> +1.7564128e-02 </wgt>
<wgt id='2054'> +1.9986022e-02 </wgt>
<wgt id='2055'> +1.7170904e-02 </wgt>
<wgt id='2056'> +2.0407684e-02 </wgt>
<wgt id='2057'> +1.7560318e-02 </wgt>
<wgt id='2058'> +2.9475859e-02 </wgt>
<wgt id='2059'> +1.7712687e-02 </wgt>
<wgt id='2060'> +2.2947217e-02 </wgt>
<wgt id='2061'> +1.7075714e-02 </wgt>
<wgt id='2062'> +1.8170591e-02 </wgt>
<wgt id='2063'> +2.7221537e-02 </wgt>
<wgt id='2064'> +1.3447996e-02 </wgt>
<wgt id='2065'> +3.8019272e-02 </wgt>
<wgt id='2066'> +1.7795296e-02 </wgt>
<wgt id='2067'> +2.8855961e-02 </wgt>
<wgt id='2068'> +2.5650365e-02 </wgt>
<wgt id='2069'> +1.8226879e-02 </wgt>
<wgt id='2070'> +1.7186310e-02 </wgt>
<wgt id='2071'> +2.7475540e-02 </wgt>
<wgt id='2072'> +3.8580557e-02 </wgt>
<wgt id='2073'> +3.2640671e-02 </wgt>
<wgt id='2074'> +1.5438504e-02 </wgt>
<wgt id='2075'> +2.1455524e-02 </wgt>
<wgt id='2076'> +5.2112894e-01 </wgt>
<wgt id='2077'> +5.2077103e-01 </wgt>
<wgt id='2078'> +5.2041383e-01 </wgt>
<wgt id='2079'> +5.2005904e-01 </wgt>
<wgt id='2080'> +5.1970056e-01 </wgt>
<wgt id='2081'> +5.1934199e-01 </wgt>
<wgt id='2082'> +5.1898434e-01 </wgt>
<wgt id='2083'> +5.1862766e-01 </wgt>
<wgt id='2084'> +5.1826988e-01 </wgt>
<wgt id='2085'> +5.1791556e-01 </wgt>
<wgt id='2086'> +5.1755950e-01 </wgt>
<wgt id='2087'> +5.1720135e-01 </wgt>
<wgt id='2088'> +5.1684639e-01 </wgt>
<wgt id='2089'> +5.1648892e-01 </wgt>
<wgt id='2090'> +5.1613307e-01 </wgt>
<wgt id='2091'> +5.1577888e-01 </wgt>
<wgt id='2092'> +5.1542072e-01 </wgt>
<wgt id='2093'> +5.1506303e-01 </wgt>
<wgt id='2094'> +5.1470627e-01 </wgt>
<wgt id='2095'> +5.1435139e-01 </wgt>
<wgt id='2096'> +5.1399401e-01 </wgt>
<wgt id='2097'> +5.1363992e-01 </wgt>
<wgt id='2098'> +5.1328414e-01 </wgt>
<wgt id='2099'> +5.1292872e-01 </wgt>
<wgt id='2100'> +5.1257272e-01 </wgt>
<wgt id='2101'> +5.1221819e-01 </wgt>
<wgt id='2102'> +5.1186282e-01 </wgt>
<wgt id='2103'> +5.1150523e-01 </wgt>
<wgt id='2104'> +5.1115350e-01 </wgt>
<wgt id='2105'> +5.1079579e-01 </wgt>
<wgt id='2106'> +5.1043964e-01 </wgt>
<wgt id='2107'> -1.8526390e+00 </wgt>
<wgt id='2108'> -3.6368719e+00 </wgt>
<wgt id='2109'> -1.3269991e+00 </wgt>
<wgt id='2110'> -1.7253983e+00 </wgt>
<wgt id='2111'> -8.1091704e-01 </wgt>
<wgt id='2112'> -2.3364537e+00 </wgt>
<wgt id='2113'> -1.1734868e+00 </wgt>
<wgt id='2114'> -4.7465631e+00 </wgt>
<wgt id='2115'> +1.8799426e+00 </wgt>
<wgt id='2116'> -4.6532679e-02 </wgt>
<wgt id='2117'> -4.4196701e+00 </wgt>
<wgt id='2118'> -5.3543736e+00 </wgt>
<wgt id='2119'> -1.9333561e+00 </wgt>
<wgt id='2120'> +1.5832977e+00 </wgt>
<wgt id='2121'> -3.2005879e+00 </wgt>
<wgt id='2122'> +2.9332340e-01 </wgt>
<wgt id='2123'> -1.8308495e-01 </wgt>
<wgt id='2124'> -3.4017038e+00 </wgt>
<wgt id='2125'> -2.3476219e+00 </wgt>
<wgt id='2126'> -1.9558217e+00 </wgt>
<wgt id='2127'> -2.7982251e+00 </wgt>
<wgt id='2128'> -3.3123090e+00 </wgt>
<wgt id='2129'> +3.7211243e-01 </wgt>
<wgt id='2130'> -2.3366063e+00 </wgt>
<wgt id='2131'> -1.8397008e+00 </wgt>
<wgt id='2132'> +2.3306794e+00 </wgt>
<wgt id='2133'> -1.3902852e+00 </wgt>
<wgt id='2134'> -2.3036424e+00 </wgt>
<wgt id='2135'> -6.3550405e+00 </wgt>
<wgt id='2136'> +2.3389680e+00 </wgt>
<wgt id='2137'> +6.8103200e-02 </wgt>
<wgt id='2138'> -4.0442604e-01 </wgt>
<wgt id='2139'> +2.5208369e+00 </wgt>
<wgt id='2140'> -4.8509300e+00 </wgt>
<wgt id='2141'> -4.9061733e+00 </wgt>
<wgt id='2142'> +4.3626281e-01 </wgt>
<wgt id='2143'> +9.0696662e-01 </wgt>
<wgt id='2144'> +1.6388629e+01 </wgt>
<wgt id='2145'> +1.2419110e-01 </wgt>
<wgt id='2146'> +2.1218009e+00 </wgt>
<wgt id='2147'> -3.6925841e+00 </wgt>
<wgt id='2148'> +1.8060909e+01 </wgt>
<wgt id='2149'> -5.9535222e+00 </wgt>
<wgt id='2150'> +2.0886260e+00 </wgt>
<wgt id='2151'> -3.9466251e+00 </wgt>
<wgt id='2152'> -1.7449374e+01 </wgt>
<wgt id='2153'> +1.6933973e+00 </wgt>
<wgt id='2154'> -8.0815429e+00 </wgt>
<wgt id='2155'> +2.2330530e+00 </wgt>
<wgt id='2156'> -9.6041923e-01 </wgt>
<wgt id='2157'> +2.2744416e+00 </wgt>
<wgt id='2158'> +2.0473928e+00 </wgt>
<wgt id='2159'> +3.6687165e+00 </wgt>
<wgt id='2160'> -9.6678242e+00 </wgt>
<wgt id='2161'> +2.8856887e+00 </wgt>
<wgt id='2162'> -7.6095431e-01 </wgt>
<wgt id='2163'> -6.3580504e+00 </wgt>
<wgt id='2164'> +3.5342747e-01 </wgt>
<wgt id='2165'> +7.5689241e-01 </wgt>
<wgt id='2166'> -1.6331850e+01 </wgt>
<wgt id='2167'> -1.3055186e+00 </wgt>
<wgt id='2168'> -2.7148763e+00 </wgt>
<wgt id='2169'> +1.6831801e+00 </wgt>
<wgt id='2170'> -1.3906829e+01 </wgt>
<wgt id='2171'> -1.1027070e+01 </wgt>
<wgt id='2172'> -9.0265256e+00 </wgt>
<wgt id='2173'> -6.1870473e+00 </wgt>
<wgt id='2174'> -1.0746879e+00 </wgt>
<wgt id='2175'> +6.3688666e-01 </wgt>
<wgt id='2176'> -6.1008754e-01 </wgt>
<wgt id='2177'> -4.6320323e+00 </wgt>
<wgt id='2178'> -3.1995254e+00 </wgt>
<wgt id='2179'> -3.8217924e+00 </wgt>
<wgt id='2180'> +1.2274614e+00 </wgt>
<wgt id='2181'> -4.6584926e+00 </wgt>
<wgt id='2182'> -5.1925238e+00 </wgt>
<wgt id='2183'> +4.2452692e+00 </wgt>
<wgt id='2184'> -7.2243973e+00 </wgt>
<wgt id='2185'> -1.0267341e+00 </wgt>
<wgt id='2186'> -5.6176866e+00 </wgt>
<wgt id='2187'> +1.8599206e+00 </wgt>
<wgt id='2188'> -2.4225938e+00 </wgt>
<wgt id='2189'> +6.7332978e-01 </wgt>
<wgt id='2190'> +1.1237498e+00 </wgt>
<wgt id='2191'> +2.3121039e+00 </wgt>
<wgt id='2192'> -4.3064071e+00 </wgt>
<wgt id='2193'> -2.4833612e+00 </wgt>
<wgt id='2194'> +2.7240848e+00 </wgt>
<wgt id='2195'> +1.1518216e-01 </wgt>
<wgt id='2196'> -3.4346892e+00 </wgt>
<wgt id='2197'> +2.5385590e+00 </wgt>
<wgt id='2198'> -2.8574576e+00 </wgt>
<wgt id='2199'> -3.5028096e+00 </wgt>
<wgt id='2200'> +6.7718212e-01 </wgt>
<wgt id='2201'> -7.0235850e+00 </wgt>
<wgt id='2202'> -8.4076579e+00 </wgt>
<wgt id='2203'> -6.7003314e+00 </wgt>
<wgt id='2204'> -3.8302052e+00 </wgt>
<wgt id='2205'> -5.0810906e+00 </wgt>
<wgt id='2206'> -2.8965052e+00 </wgt>
<wgt id='2207'> -2.1371358e-01 </wgt>
<wgt id='2208'> -1.8526345e+00 </wgt>
<wgt id='2209'> -1.8526372e+00 </wgt>
<wgt id='2210'> -1.8526394e+00 </wgt>
<wgt id='2211'> -1.8526452e+00 </wgt>
<wgt id='2212'> -1.8526422e+00 </wgt>
<wgt id='2213'> -1.8526392e+00 </wgt>
<wgt id='2214'> -1.8526374e+00 </wgt>
<wgt id='2215'> +8.8075804e+00 </wgt>
<wgt id='2216'> -3.8248310e+01 </wgt>
<wgt id='2217'> +5.9741476e+01 </wgt>
<wgt id='2218'> -6.9631203e+01 </wgt>
<wgt id='2219'> +9.6237556e+02 </wgt>
<wgt id='2220'> +1.1159629e+02 </wgt>
<wgt id='2221'> -5.2090489e+01 </wgt>
<wgt id='2222'> +1.9168954e+02 </wgt>
<wgt id='2223'> -1.3247981e+02 </wgt>
<wgt id='2224'> +1.9478916e+02 </wgt>
<wgt id='2225'> -7.0257216e+01 </wgt>
<wgt id='2226'> -9.4167561e+01 </wgt>
<wgt id='2227'> -2.2775076e+02 </wgt>
<wgt id='2228'> +4.1859171e+00 </wgt>
<wgt id='2229'> +4.0916759e+00 </wgt>
<wgt id='2230'> -9.3524713e+00 </wgt>
<wgt id='2231'> +1.8435484e+02 </wgt>
<wgt id='2232'> +1.7014616e+01 </wgt>
<wgt id='2233'> +9.7314171e+01 </wgt>
<wgt id='2234'> +1.1989215e+02 </wgt>
<wgt id='2235'> +8.7824883e+01 </wgt>
<wgt id='2236'> +1.0432015e+01 </wgt>
<wgt id='2237'> +2.0532654e+02 </wgt>
<wgt id='2238'> -4.5624896e+00 </wgt>
<wgt id='2239'> +1.2879106e+02 </wgt>
<wgt id='2240'> +2.0814596e+02 </wgt>
<wgt id='2241'> +5.0889297e+00 </wgt>
<wgt id='2242'> +7.7336040e+01 </wgt>
<wgt id='2243'> +1.2849258e+01 </wgt>
<wgt id='2244'> -1.5101848e+02 </wgt>
<wgt id='2245'> -2.4537724e+01 </wgt>
<wgt id='2246'> +8.6468366e+00 </wgt>
<wgt id='2247'> -1.7901700e+01 </wgt>
<wgt id='2248'> +6.1535235e+01 </wgt>
<wgt id='2249'> -2.5857183e+01 </wgt>
<wgt id='2250'> +6.6739906e+01 </wgt>
<wgt id='2251'> -1.7200377e+02 </wgt>
<wgt id='2252'> -2.2067015e+01 </wgt>
<wgt id='2253'> -7.6041953e+01 </wgt>
<wgt id='2254'> +1.1957792e+02 </wgt>
<wgt id='2255'> -1.3665507e+02 </wgt>
<wgt id='2256'> +1.9636545e+02 </wgt>
<wgt id='2257'> -2.0997064e+01 </wgt>
<wgt id='2258'> -5.8538006e+00 </wgt>
<wgt id='2259'> -6.8336910e+00 </wgt>
<wgt id='2260'> +1.9065441e+02 </wgt>
<wgt id='2261'> +1.2343150e+02 </wgt>
<wgt id='2262'> -2.6784363e+01 </wgt>
<wgt id='2263'> +1.8300309e+02 </wgt>
<wgt id='2264'> -1.0734766e+01 </wgt>
<wgt id='2265'> -1.4395282e+02 </wgt>
<wgt id='2266'> -1.1222984e+02 </wgt>
<wgt id='2267'> +3.8574459e+01 </wgt>
<wgt id='2268'> +9.9852532e+00 </wgt>
<wgt id='2269'> -7.9322660e+01 </wgt>
<wgt id='2270'> -8.7877607e+01 </wgt>
<wgt id='2271'> -3.3131391e+01 </wgt>
<wgt id='2272'> +8.2472499e+01 </wgt>
<wgt id='2273'> -6.5762111e+01 </wgt>
<wgt id='2274'> +2.0348479e+02 </wgt>
<wgt id='2275'> +2.2989716e+02 </wgt>
<wgt id='2276'> -6.0630381e+01 </wgt>
<wgt id='2277'> +9.4526130e+00 </wgt>
<wgt id='2278'> +5.6997313e+01 </wgt>
<wgt id='2279'> +1.4794180e+01 </wgt>
<wgt id='2280'> -7.1445109e+01 </wgt>
<wgt id='2281'> +1.7659978e+01 </wgt>
<wgt id='2282'> +5.2438457e+01 </wgt>
<wgt id='2283'> -1.1682878e+02 </wgt>
<wgt id='2284'> +2.7230980e+01 </wgt>
<wgt id='2285'> -1.5804254e+02 </wgt>
<wgt id='2286'> -5.3155518e+01 </wgt>
<wgt id='2287'> -5.8540976e+01 </wgt>
<wgt id='2288'> +5.4915885e+00 </wgt>
<wgt id='2289'> -5.8557764e+00 </wgt>
<wgt id='2290'> +4.5662336e+02 </wgt>
<wgt id='2291'> -9.9935821e+01 </wgt>
<wgt id='2292'> -3.2795657e+00 </wgt>
<wgt id='2293'> +8.5851131e+01 </wgt>
<wgt id='2294'> -8.3412652e+01 </wgt>
<wgt id='2295'> +8.3951399e-01 </wgt>
<wgt id='2296'> -6.0433938e+01 </wgt>
<wgt id='2297'> +1.0793240e+02 </wgt>
<wgt id='2298'> -3.2891353e+02 </wgt>
<wgt id='2299'> +4.5124505e+02 </wgt>
<wgt id='2300'> +5.6959802e+00 </wgt>
<wgt id='2301'> +5.5160380e+01 </wgt>
<wgt id='2302'> +3.0204013e+02 </wgt>
<wgt id='2303'> +7.9639026e+01 </wgt>
<wgt id='2304'> -1.4366048e+01 </wgt>
<wgt id='2305'> -1.3066975e+01 </wgt>
<wgt id='2306'> -7.4256194e+01 </wgt>
<wgt id='2307'> -1.0005437e+02 </wgt>
<wgt id='2308'> +1.4841219e+02 </wgt>
<wgt id='2309'> -6.0252388e+01 </wgt>
<wgt id='2310'> +1.2614238e+02 </wgt>
<wgt id='2311'> +4.3220682e+01 </wgt>
<wgt id='2312'> +4.6445528e+00 </wgt>
<wgt id='2313'> +4.6902176e+00 </wgt>
<wgt id='2314'> -1.5655379e+02 </wgt>
<wgt id='2315'> +4.8583595e+01 </wgt>
<wgt id='2316'> +5.0445641e+00 </wgt>
<wgt id='2317'> +5.0665876e+00 </wgt>
<wgt id='2318'> -1.2828739e+00 </wgt>
<wgt id='2319'> +5.5008293e+01 </wgt>
<wgt id='2320'> +4.9022853e+01 </wgt>
<wgt id='2321'> +5.7578261e+01 </wgt>
<wgt id='2322'> +7.6979520e+01 </wgt>
</rwgt>
</event>
<event>
13      1 +1.1579678e+02 2.10298600e+02 7.81859000e-03 1.04806600e-01
        2 -1    0    0  502    0 +0.0000000000e+00 +0.0000000000e+00 +1.0872541018e+03 1.0872541018e+03 0.0000000000e+00 0.0000e+00 -1.0000e+00
       -2 -1    0    0    0  501 +0.0000000000e+00 +0.0000000000e+00 -4.6874456973e+01 4.6874456973e+01 0.0000000000e+00 0.0000e+00 1.0000e+00
        6  2    1    2  502    0 +1.1143953308e+02 -6.6156139034e+01 +3.9890933703e+02 4.5376810940e+02 1.7315147607e+02 0.0000e+00 0.0000e+00
        5  1    3    3  502    0 +3.1996645582e+01 -9.4976710180e+01 +1.9711671061e+02 2.2113199318e+02 0.0000000000e+00 0.0000e+00 -1.0000e+00
       24  2    3    3    0    0 +7.9442887498e+01 +2.8820571146e+01 +2.0179262642e+02 2.3263611621e+02 7.9104366468e+01 0.0000e+00 0.0000e+00
      -15  1    5    5    0    0 +2.3425229667e+01 +1.9673961132e+01 +1.5803264528e+02 1.6096621728e+02 0.0000000000e+00 0.0000e+00 1.0000e+00
       16  1    5    5    0    0 +5.6017657831e+01 +9.1466100139e+00 +4.3759981139e+01 7.1669898932e+01 0.0000000000e+00 0.0000e+00 -1.0000e+00
       -6  2    1    2    0  503 -9.4489367919e+01 +6.3852121497e+01 +6.1499008140e+02 6.4883555468e+02 1.7253823556e+02 0.0000e+00 0.0000e+00
       -5  1    8    8    0  503 -2.6617437584e+01 +9.2362087088e+01 +2.3102362434e+02 2.5022221748e+02 0.0000000000e+00 0.0000e+00 1.0000e+00
      -24  2    8    8    0    0 -6.7871930335e+01 -2.8509965591e+01 +3.8396645705e+02 3.9861333720e+02 7.7736319611e+01 0.0000e+00 0.0000e+00
       13  1   10   10    0    0 -5.4435078774e+01 +4.7958180596e-01 +3.3961819315e+02 3.4395337609e+02 0.0000000000e+00 0.0000e+00 -1.0000e+00
      -14  1   10   10    0    0 -1.3436851561e+01 -2.8989547397e+01 +4.4348263900e+01 5.4659961115e+01 0.0000000000e+00 0.0000e+00 1.0000e+00
       21  1    1    2  503  501 -1.6950165162e+01 +2.3040175371e+00 +2.6480226397e+01 3.1524894700e+01 0.0000000000e+00 0.0000e+00 1.0000e+00
<scales pt_clust_1="13000.0" pt_clust_2="13000.0" pt_clust_3="13000.0" pt_clust_4="13000.0" pt_clust_5="13000.0" pt_clust_6="13000.0" pt_clust_7="17.17227"></scales>
<mgrwt>
<rscale>  2 0.21029864e+03</rscale>
<asrwt>  1 0.17172273e+02</asrwt>
<pdfrwt beam="1">  1        2 0.16726984e+00 0.21029864e+03</pdfrwt>
<pdfrwt beam="2">  2       -2       -2 0.72114557e-02 0.66289170e-02 0.17172273e+02 0.21029864e+03</pdfrwt>
<totfact> 0.51888156e+00</totfact>
</mgrwt>
<clustering>
<clus scale="   17.172">  2  5  1 -1</clus>
<clus scale="  313.243">  3  4 -1 -1</clus>
<clus scale="  210.299">  1  3  2 -1</clus>
</clustering>
<rwgt>
<wgt id='reference_point'> +1.1579678e+02 </wgt>
<wgt id='eftrwgt0_ctg_-0.754_cqq83_2.978_cqq81_11.175_cqu8_-0.722_cqd8_-22.551_ctq8_11.076_ctu8_-15.131_ctd8_20.128_cqq13_0.321_cqq11_-6.675_cqu1_-3.516_cqd1_6.151_ctq1_5.402_ctu1_-8.742_ctd1_5.367'> +4.9295307e+01 </wgt>
<wgt id='eftrwgt1_ctg_-1.195_cqq83_-15.761_cqq81_-4.235_cqu8_-15.499_cqd8_-10.228_ctq8_-0.966_ctu8_-17.272_ctd8_-16.58_cqq13_-4.893_cqq11_4.278_cqu1_-0.839_cqd1_-4.333_ctq1_2.613_ctu1_-1.417_ctd1_-2.816'> +4.0770280e+00 </wgt>
<wgt id='eftrwgt2_ctg_-1.383_cqq83_5.883_cqq81_-5.515_cqu8_2.394_cqd8_-9.03_ctq8_-0.054_ctu8_-11.517_ctd8_-10.825_cqq13_-0.011_cqq11_4.192_cqu1_6.747_cqd1_8.549_ctq1_7.513_ctu1_-7.841_ctd1_7.605'> +3.9052293e+01 </wgt>
<wgt id='eftrwgt3_ctg_0.83_cqq83_7.564_cqq81_-4.758_cqu8_11.03_cqd8_2.018_ctq8_13.609_ctu8_6.693_ctd8_12.801_cqq13_1.059_cqq11_-4.128_cqu1_0.962_cqd1_4.274_ctq1_8.055_ctu1_-10.409_ctd1_-1.438'> +5.2555405e+01 </wgt>
<wgt id='eftrwgt4_ctg_0.635_cqq83_-11.713_cqq81_0.383_cqu8_10.984_cqd8_-20.924_ctq8_-2.091_ctu8_5.555_ctd8_1.514_cqq13_3.429_cqq11_-0.162_cqu1_-10.649_cqd1_5.475_ctq1_5.872_ctu1_-1.687_ctd1_-8.071'> +1.8981455e+01 </wgt>
<wgt id='eftrwgt5_ctg_0.29_cqq83_4.054_cqq81_-1.527_cqu8_-4.305_cqd8_-20.381_ctq8_12.02_ctu8_-17.198_ctd8_4.416_cqq13_-0.765_cqq11_-1.818_cqu1_-0.276_cqd1_12.045_ctq1_-6.626_ctu1_4.803_ctd1_5.994'> +3.6250887e+01 </wgt>
<wgt id='eftrwgt6_ctg_0.363_cqq83_-5.38_cqq81_10.485_cqu8_-11.932_cqd8_-4.948_ctq8_9.185_ctu8_-12.064_ctd8_17.315_cqq13_-0.222_cqq11_-6.441_cqu1_-7.804_cqd1_-9.036_ctq1_-7.458_ctu1_9.293_ctd1_3.977'> +5.3920906e+01 </wgt>
<wgt id='eftrwgt7_ctg_-1.197_cqq83_-4.451_cqq81_7.597_cqu8_-7.443_cqd8_22.122_ctq8_3.031_ctu8_-12.259_ctd8_16.154_cqq13_-6.717_cqq11_-0.945_cqu1_5.096_cqd1_2.249_ctq1_-0.68_ctu1_-7.751_ctd1_8.44'> +1.8639212e+01 </wgt>
<wgt id='eftrwgt8_ctg_0.542_cqq83_-14.102_cqq81_-2.643_cqu8_18.837_cqd8_-13.941_ctq8_-13.421_ctu8_13.125_ctd8_-6.068_cqq13_-0.748_cqq11_-1.138_cqu1_3.707_cqd1_-4.4_ctq1_2.065_ctu1_5.13_ctd1_4.025'> +8.2945252e+00 </wgt>
<wgt id='eftrwgt9_ctg_1.074_cqq83_4.736_cqq81_-13.002_cqu8_-15.389_cqd8_0.91_ctq8_-9.328_ctu8_7.624_ctd8_-22.019_cqq13_3.75_cqq11_-2.977_cqu1_-3.02_cqd1_-13.923_ctq1_-7.186_ctu1_2.633_ctd1_-7.896'> +9.0637512e+00 </wgt>
<wgt id='eftrwgt10_ctg_1.238_cqq83_-17.533_cqq81_12.633_cqu8_3.116_cqd8_9.117_ctq8_-4.456_ctu8_0.149_ctd8_15.76_cqq13_-4.569_cqq11_4.155_cqu1_6.051_cqd1_-8.105_ctq1_0.824_ctu1_0.75_ctd1_6.587'> +2.4656540e+00 </wgt>
<wgt id='eftrwgt11_ctg_-1.233_cqq83_-17.319_cqq81_-5.312_cqu8_16.53_cqd8_-9.607_ctq8_-3.402_ctu8_-16.447_ctd8_-22.15_cqq13_-0.265_cqq11_4.394_cqu1_-0.387_cqd1_0.421_ctq1_2.017_ctu1_-6.772_ctd1_6.873'> +1.2714638e+01 </wgt>
<wgt id='eftrwgt12_ctg_0.408_cqq83_-9.97_cqq81_3.05_cqu8_8.428_cqd8_-10.45_ctq8_-4.549_ctu8_7.41_ctd8_-18.252_cqq13_4.276_cqq11_0.305_cqu1_-4.657_cqd1_-5.86_ctq1_4.293_ctu1_-6.686_ctd1_-6.47'> +1.8869697e+01 </wgt>
<wgt id='eftrwgt13_ctg_1.091_cqq83_16.651_cqq81_9.034_cqu8_-17.068_cqd8_-16.41_ctq8_5.505_ctu8_-6.023_ctd8_-19.606_cqq13_-1.427_cqq11_2.94_cqu1_-7.645_cqd1_-9.373_ctq1_-6.218_ctu1_1.987_ctd1_-10.94'> +7.9756076e+01 </wgt>
<wgt id='eftrwgt14_ctg_-0.901_cqq83_-3.298_cqq81_-0.028_cqu8_-17.181_cqd8_-17.858_ctq8_-13.488_ctu8_-10.256_ctd8_-0.921_cqq13_4.443_cqq11_-0.633_cqu1_-9.228_cqd1_11.328_ctq1_-0.213_ctu1_-0.551_ctd1_-5.789'> +2.9528174e+00 </wgt>
<wgt id='eftrwgt15_ctg_1.026_cqq83_10.852_cqq81_-7.218_cqu8_6.384_cqd8_16.276_ctq8_-4.737_ctu8_-13.404_ctd8_1.733_cqq13_7.315_cqq11_-8.101_cqu1_-2.738_cqd1_7.548_ctq1_8.479_ctu1_-6.738_ctd1_-5.539'> +2.7486152e+01 </wgt>
<wgt id='eftrwgt16_ctg_-0.132_cqq83_-16.656_cqq81_4.305_cqu8_-12.062_cqd8_4.31_ctq8_13.615_ctu8_3.27_ctd8_11.552_cqq13_-1.799_cqq11_7.423_cqu1_6.843_cqd1_13.535_ctq1_0.146_ctu1_7.054_ctd1_9.686'> +1.9320615e+01 </wgt>
<wgt id='eftrwgt17_ctg_0.712_cqq83_-6.61_cqq81_-4.301_cqu8_-1.403_cqd8_6.303_ctq8_-4.86_ctu8_3.128_ctd8_-14.844_cqq13_0.039_cqq11_-4.957_cqu1_2.629_cqd1_-12.532_ctq1_4.939_ctu1_-4.209_ctd1_-3.655'> +2.2225475e-02 </wgt>
<wgt id='eftrwgt18_ctg_-1.35_cqq83_-11.68_cqq81_4.439_cqu8_13.372_cqd8_-0.653_ctq8_5.688_ctu8_0.67_ctd8_-7.709_cqq13_-5.475_cqq11_-5.399_cqu1_3.601_cqd1_-8.439_ctq1_1.117_ctu1_-0.006_ctd1_13.614'> +1.9640488e+01 </wgt>
<wgt id='eftrwgt19_ctg_0.098_cqq83_15.517_cqq81_-5.712_cqu8_-4.013_cqd8_-7.836_ctq8_-1.046_ctu8_-12.063_ctd8_6.039_cqq13_-3.557_cqq11_7.181_cqu1_6.996_cqd1_-3.116_ctq1_1.869_ctu1_1.545_ctd1_-10.959'> +3.2234134e+01 </wgt>
<wgt id='eftrwgt20_ctg_0.401_cqq83_8.943_cqq81_9.36_cqu8_14.22_cqd8_-14.886_ctq8_8.313_ctu8_5.302_ctd8_-10.568_cqq13_-2.406_cqq11_5.185_cqu1_-6.752_cqd1_-3.344_ctq1_-0.322_ctu1_-1.749_ctd1_2.241'> +7.0900989e+01 </wgt>
<wgt id='eftrwgt21_ctg_0.263_cqq83_-7.003_cqq81_9.705_cqu8_13.582_cqd8_19.058_ctq8_12.946_ctu8_6.424_ctd8_17.248_cqq13_-4.887_cqq11_-3.405_cqu1_10.633_cqd1_-6.948_ctq1_5.694_ctu1_-6.922_ctd1_1.277'> +3.1452983e+01 </wgt>
<wgt id='eftrwgt22_ctg_0.627_cqq83_-17.281_cqq81_-4.961_cqu8_16.938_cqd8_22.735_ctq8_-1.208_ctu8_-3.511_ctd8_-5.122_cqq13_5.387_cqq11_-4.565_cqu1_7.804_cqd1_11.098_ctq1_-1.5_ctu1_8.736_ctd1_13.194'> +2.8623531e+00 </wgt>
<wgt id='eftrwgt23_ctg_-0.648_cqq83_15.811_cqq81_12.009_cqu8_-18.949_cqd8_0.783_ctq8_-3.059_ctu8_-17.702_ctd8_-6.711_cqq13_-4.356_cqq11_3.652_cqu1_-8.368_cqd1_-4.016_ctq1_2.411_ctu1_3.109_ctd1_4.001'> +5.4491711e+01 </wgt>
<wgt id='eftrwgt24_ctg_0.279_cqq83_3.419_cqq81_-12.348_cqu8_-3.685_cqd8_-7.428_ctq8_10.986_ctu8_-5.15_ctd8_-17.732_cqq13_-2.497_cqq11_-5.647_cqu1_0.002_cqd1_-4.035_ctq1_-3.93_ctu1_-1.854_ctd1_8.352'> +3.1824247e+01 </wgt>
<wgt id='eftrwgt25_ctg_1.257_cqq83_8.7_cqq81_-13.787_cqu8_1.396_cqd8_-4.553_ctq8_0.437_ctu8_6.957_ctd8_15.293_cqq13_7.476_cqq11_-5.974_cqu1_-3.383_cqd1_-2.371_ctq1_-0.219_ctu1_2.622_ctd1_-7.856'> +7.0415573e+00 </wgt>
<wgt id='eftrwgt26_ctg_-1.323_cqq83_-5.612_cqq81_0.616_cqu8_6.632_cqd8_-3.336_ctq8_13.782_ctu8_-3.939_ctd8_-15.742_cqq13_2.848_cqq11_5.501_cqu1_-1.125_cqd1_-13.284_ctq1_-0.806_ctu1_-0.98_ctd1_-3.316'> +3.2649525e+01 </wgt>
<wgt id='eftrwgt27_ctg_-1.062_cqq83_-5.785_cqq81_-3.069_cqu8_7.318_cqd8_-18.47_ctq8_-5.182_ctu8_-7.369_ctd8_-7.449_cqq13_-0.119_cqq11_-7.366_cqu1_-4.956_cqd1_-13.113_ctq1_-1.612_ctu1_-8.864_ctd1_-9.975'> +2.0161927e+01 </wgt>
<wgt id='eftrwgt28_ctg_0.241_cqq83_-10.317_cqq81_-13.275_cqu8_-8.248_cqd8_-17.794_ctq8_-12.823_ctu8_-16.47_ctd8_-4.449_cqq13_-2.362_cqq11_4.11_cqu1_-10.775_cqd1_-8.582_ctq1_2.037_ctu1_-10.4_ctd1_1.059'> +1.7184546e+01 </wgt>
<wgt id='eftrwgt29_ctg_0.186_cqq83_-14.559_cqq81_-7.088_cqu8_-18.724_cqd8_-0.974_ctq8_-0.831_ctu8_6.546_ctd8_-21.38_cqq13_-1.637_cqq11_2.85_cqu1_2.42_cqd1_-0.935_ctq1_-8.07_ctu1_5.575_ctd1_0.549'> +1.5506472e+01 </wgt>
<wgt id='eftrwgt30_ctg_-1.395_cqq83_-10.203_cqq81_12.938_cqu8_3.137_cqd8_11.131_ctq8_9.079_ctu8_-0.374_ctd8_-23.313_cqq13_-4.383_cqq11_-1.0_cqu1_1.541_cqd1_2.342_ctq1_-4.241_ctu1_-4.162_ctd1_-12.306'> +2.7122343e+01 </wgt>
<wgt id='eftrwgt31_ctg_0.115_cqq83_-15.901_cqq81_-6.358_cqu8_-16.907_cqd8_-5.747_ctq8_2.066_ctu8_-12.966_ctd8_-16.328_cqq13_-3.096_cqq11_2.684_cqu1_-8.352_cqd1_-6.211_ctq1_2.511_ctu1_5.799_ctd1_9.554'> +1.7758623e+00 </wgt>
<wgt id='eftrwgt32_ctg_1.117_cqq83_2.704_cqq81_7.787_cqu8_-16.533_cqd8_8.904_ctq8_10.253_ctu8_2.612_ctd8_4.645_cqq13_-5.493_cqq11_2.812_cqu1_-7.509_cqd1_-3.19_ctq1_-6.22_ctu1_5.276_ctd1_5.86'> +5.3010329e+01 </wgt>
<wgt id='eftrwgt33_ctg_0.209_cqq83_-8.091_cqq81_-11.607_cqu8_-16.123_cqd8_-8.064_ctq8_-3.29_ctu8_-14.767_ctd8_-13.018_cqq13_-5.739_cqq11_0.542_cqu1_-1.411_cqd1_-8.179_ctq1_-5.997_ctu1_-7.343_ctd1_12.169'> +3.4986908e+01 </wgt>
<wgt id='eftrwgt34_ctg_-1.122_cqq83_6.387_cqq81_-1.268_cqu8_-5.867_cqd8_-9.336_ctq8_-2.052_ctu8_-17.13_ctd8_21.742_cqq13_0.581_cqq11_5.886_cqu1_-10.133_cqd1_-11.29_ctq1_-6.71_ctu1_3.942_ctd1_9.713'> +6.8336834e+00 </wgt>
<wgt id='eftrwgt35_ctg_-1.321_cqq83_10.781_cqq81_5.96_cqu8_-16.967_cqd8_5.511_ctq8_-3.29_ctu8_-3.816_ctd8_-14.387_cqq13_-5.938_cqq11_-2.941_cqu1_-5.98_cqd1_11.576_ctq1_0.788_ctu1_10.277_ctd1_-4.905'> +2.5762221e+01 </wgt>
<wgt id='eftrwgt36_ctg_-0.68_cqq83_-4.656_cqq81_2.64_cqu8_-5.091_cqd8_-6.267_ctq8_12.357_ctu8_4.141_ctd8_8.527_cqq13_4.229_cqq11_-0.357_cqu1_6.729_cqd1_-0.812_ctq1_5.304_ctu1_-6.109_ctd1_-13.243'> +4.6489837e+01 </wgt>
<wgt id='eftrwgt37_ctg_-1.287_cqq83_-9.3_cqq81_-1.066_cqu8_-15.272_cqd8_5.656_ctq8_0.824_ctu8_-7.129_ctd8_-5.439_cqq13_-7.864_cqq11_0.302_cqu1_3.094_cqd1_1.84_ctq1_-4.372_ctu1_-7.563_ctd1_2.217'> +3.0780592e+01 </wgt>
<wgt id='eftrwgt38_ctg_0.789_cqq83_2.618_cqq81_-0.896_cqu8_4.006_cqd8_12.013_ctq8_-9.44_ctu8_-16.781_ctd8_-6.655_cqq13_-5.548_cqq11_2.529_cqu1_7.52_cqd1_-4.256_ctq1_5.745_ctu1_0.798_ctd1_7.829'> +5.1756888e+00 </wgt>
<wgt id='eftrwgt39_ctg_0.721_cqq83_1.632_cqq81_7.373_cqu8_-0.631_cqd8_4.104_ctq8_12.802_ctu8_-10.868_ctd8_-5.968_cqq13_-1.832_cqq11_-3.336_cqu1_-4.17_cqd1_-6.056_ctq1_-3.676_ctu1_5.679_ctd1_-9.027'> +5.2910106e+01 </wgt>
<wgt id='eftrwgt40_ctg_-0.362_cqq83_-1.589_cqq81_6.197_cqu8_-18.27_cqd8_7.832_ctq8_-9.399_ctu8_-6.455_ctd8_10.547_cqq13_-4.378_cqq11_5.514_cqu1_-8.215_cqd1_4.889_ctq1_5.265_ctu1_10.009_ctd1_3.422'> +1.3605411e+01 </wgt>
<wgt id='eftrwgt41_ctg_0.658_cqq83_-10.403_cqq81_3.211_cqu8_-2.337_cqd8_17.509_ctq8_6.996_ctu8_-1.761_ctd8_-2.923_cqq13_7.515_cqq11_-0.097_cqu1_0.074_cqd1_12.92_ctq1_-6.01_ctu1_-8.626_ctd1_2.326'> +1.0311404e+01 </wgt>
<wgt id='eftrwgt42_ctg_0.239_cqq83_-0.972_cqq81_-1.122_cqu8_-17.342_cqd8_-7.199_ctq8_-12.68_ctu8_1.247_ctd8_17.533_cqq13_-6.465_cqq11_-5.436_cqu1_9.489_cqd1_-0.985_ctq1_8.129_ctu1_-5.418_ctd1_5.104'> +3.5344489e+00 </wgt>
<wgt id='eftrwgt43_ctg_-0.649_cqq83_12.017_cqq81_-8.81_cqu8_-11.947_cqd8_-0.617_ctq8_-8.389_ctu8_-11.126_ctd8_-23.747_cqq13_-2.837_cqq11_5.496_cqu1_4.701_cqd1_4.955_ctq1_2.49_ctu1_2.683_ctd1_-7.631'> +9.1126497e+00 </wgt>
<wgt id='eftrwgt44_ctg_0.171_cqq83_12.009_cqq81_1.908_cqu8_4.651_cqd8_-17.53_ctq8_4.385_ctu8_9.354_ctd8_6.605_cqq13_0.349_cqq11_-3.295_cqu1_-5.85_cqd1_-13.524_ctq1_0.629_ctu1_-6.984_ctd1_13.334'> +3.7024742e+01 </wgt>
<wgt id='eftrwgt45_ctg_1.117_cqq83_-1.134_cqq81_0.846_cqu8_-17.819_cqd8_7.834_ctq8_-1.016_ctu8_17.048_ctd8_-16.169_cqq13_3.138_cqq11_-2.054_cqu1_-10.535_cqd1_-6.766_ctq1_2.47_ctu1_6.02_ctd1_11.267'> +1.4481370e+01 </wgt>
<wgt id='eftrwgt46_ctg_0.852_cqq83_-5.375_cqq81_-1.252_cqu8_-6.421_cqd8_17.384_ctq8_4.252_ctu8_6.891_ctd8_10.51_cqq13_-4.608_cqq11_7.589_cqu1_-6.678_cqd1_11.188_ctq1_-3.189_ctu1_-10.063_ctd1_0.955'> +6.8290609e+00 </wgt>
<wgt id='eftrwgt47_ctg_0.672_cqq83_10.633_cqq81_-10.436_cqu8_3.141_cqd8_5.015_ctq8_-11.403_ctu8_-4.418_ctd8_-1.92_cqq13_0.491_cqq11_-8.212_cqu1_-0.701_cqd1_-0.931_ctq1_5.075_ctu1_5.776_ctd1_-9.187'> +1.8320545e+00 </wgt>
<wgt id='eftrwgt48_ctg_0.097_cqq83_-13.235_cqq81_3.083_cqu8_-6.992_cqd8_-21.927_ctq8_-1.972_ctu8_12.828_ctd8_-23.378_cqq13_1.548_cqq11_-7.292_cqu1_-7.809_cqd1_-3.663_ctq1_-0.091_ctu1_3.906_ctd1_0.689'> +7.1250779e+00 </wgt>
<wgt id='eftrwgt49_ctg_1.029_cqq83_-0.471_cqq81_-7.658_cqu8_-14.403_cqd8_16.435_ctq8_-10.202_ctu8_-12.269_ctd8_-13.394_cqq13_-1.09_cqq11_4.914_cqu1_-4.324_cqd1_0.827_ctq1_-4.544_ctu1_-0.962_ctd1_9.864'> +2.8188007e-01 </wgt>
<wgt id='eftrwgt50_ctg_-0.665_cqq83_-14.242_cqq81_-8.115_cqu8_4.63_cqd8_10.452_ctq8_-13.832_ctu8_-13.909_ctd8_-10.071_cqq13_-2.706_cqq11_1.201_cqu1_0.148_cqd1_-0.781_ctq1_-6.102_ctu1_-6.349_ctd1_6.964'> +4.4170802e+01 </wgt>
<wgt id='eftrwgt51_ctg_-0.787_cqq83_-15.261_cqq81_8.809_cqu8_-2.155_cqd8_-17.025_ctq8_-6.971_ctu8_10.751_ctd8_-10.297_cqq13_-0.617_cqq11_7.049_cqu1_-7.986_cqd1_-2.061_ctq1_0.449_ctu1_6.857_ctd1_-13.813'> +9.7618172e+00 </wgt>
<wgt id='eftrwgt52_ctg_0.862_cqq83_17.48_cqq81_4.698_cqu8_8.08_cqd8_9.692_ctq8_3.485_ctu8_11.755_ctd8_-3.559_cqq13_6.645_cqq11_2.713_cqu1_-8.115_cqd1_8.608_ctq1_-6.273_ctu1_7.111_ctd1_5.866'> +7.4407448e+01 </wgt>
<wgt id='eftrwgt53_ctg_-0.903_cqq83_3.892_cqq81_-1.362_cqu8_-12.339_cqd8_-12.919_ctq8_2.258_ctu8_8.165_ctd8_16.95_cqq13_-4.352_cqq11_1.546_cqu1_7.695_cqd1_11.734_ctq1_2.3_ctu1_9.781_ctd1_1.838'> +9.1985053e+00 </wgt>
<wgt id='eftrwgt54_ctg_-0.522_cqq83_-0.949_cqq81_-0.037_cqu8_14.405_cqd8_-4.088_ctq8_-5.643_ctu8_8.684_ctd8_-21.06_cqq13_-6.966_cqq11_-5.093_cqu1_-4.897_cqd1_2.455_ctq1_-3.435_ctu1_3.57_ctd1_-7.932'> +4.9353168e+01 </wgt>
<wgt id='eftrwgt55_ctg_-0.222_cqq83_1.213_cqq81_10.848_cqu8_-14.188_cqd8_-19.129_ctq8_4.966_ctu8_6.833_ctd8_-10.208_cqq13_6.393_cqq11_2.922_cqu1_9.268_cqd1_9.372_ctq1_3.58_ctu1_5.027_ctd1_13.963'> +8.9651976e+01 </wgt>
<wgt id='eftrwgt56_ctg_-0.064_cqq83_-13.896_cqq81_-9.146_cqu8_-12.936_cqd8_6.184_ctq8_-9.142_ctu8_7.671_ctd8_-23.063_cqq13_-5.638_cqq11_0.314_cqu1_3.549_cqd1_13.313_ctq1_7.463_ctu1_-2.827_ctd1_4.274'> +1.2083062e+01 </wgt>
<wgt id='eftrwgt57_ctg_0.55_cqq83_-0.366_cqq81_13.131_cqu8_-11.082_cqd8_-6.326_ctq8_-1.457_ctu8_-10.801_ctd8_-1.042_cqq13_-6.705_cqq11_-3.081_cqu1_2.128_cqd1_13.722_ctq1_-3.878_ctu1_8.438_ctd1_-10.644'> +4.8956389e+01 </wgt>
<wgt id='eftrwgt58_ctg_-0.739_cqq83_-1.927_cqq81_-4.498_cqu8_-7.655_cqd8_-12.724_ctq8_7.311_ctu8_0.6_ctd8_-24.282_cqq13_7.046_cqq11_-1.157_cqu1_2.74_cqd1_1.196_ctq1_0.456_ctu1_10.57_ctd1_6.47'> +1.8540898e+01 </wgt>
<wgt id='eftrwgt59_ctg_-0.809_cqq83_6.461_cqq81_5.164_cqu8_7.348_cqd8_-10.049_ctq8_-9.039_ctu8_11.156_ctd8_17.765_cqq13_2.406_cqq11_-3.454_cqu1_-8.251_cqd1_3.987_ctq1_-2.608_ctu1_-5.906_ctd1_-13.122'> +7.7973898e+00 </wgt>
<wgt id='eftrwgt60_ctg_0.321_cqq83_5.49_cqq81_9.481_cqu8_6.2_cqd8_6.877_ctq8_-2.766_ctu8_2.591_ctd8_5.007_cqq13_4.948_cqq11_-5.846_cqu1_1.836_cqd1_2.37_ctq1_3.758_ctu1_-2.994_ctd1_-9.755'> +3.2640581e+01 </wgt>
<wgt id='eftrwgt61_ctg_0.309_cqq83_13.504_cqq81_0.142_cqu8_15.303_cqd8_-11.281_ctq8_-13.865_ctu8_10.736_ctd8_-18.349_cqq13_0.658_cqq11_-2.407_cqu1_-8.659_cqd1_5.691_ctq1_0.834_ctu1_-7.918_ctd1_8.27'> +7.3976197e+00 </wgt>
<wgt id='eftrwgt62_ctg_-0.755_cqq83_1.09_cqq81_-2.059_cqu8_14.895_cqd8_0.941_ctq8_-0.117_ctu8_-3.607_ctd8_-7.303_cqq13_2.029_cqq11_-6.951_cqu1_-7.372_cqd1_-8.246_ctq1_-0.626_ctu1_-0.403_ctd1_-6.554'> +7.9918066e+00 </wgt>
<wgt id='eftrwgt63_ctg_-1.189_cqq83_3.274_cqq81_5.97_cqu8_-8.688_cqd8_14.017_ctq8_2.273_ctu8_14.433_ctd8_-19.069_cqq13_-4.403_cqq11_3.367_cqu1_-4.681_cqd1_10.796_ctq1_-4.846_ctu1_1.054_ctd1_-13.006'> +1.8966211e+01 </wgt>
<wgt id='eftrwgt64_ctg_0.949_cqq83_12.237_cqq81_-2.266_cqu8_-10.878_cqd8_-7.642_ctq8_-6.632_ctu8_-5.91_ctd8_22.286_cqq13_-6.42_cqq11_-0.839_cqu1_-9.914_cqd1_11.165_ctq1_5.728_ctu1_-2.834_ctd1_-11.273'> +1.3729957e+01 </wgt>
<wgt id='eftrwgt65_ctg_-1.077_cqq83_6.554_cqq81_-5.771_cqu8_-11.958_cqd8_-5.175_ctq8_6.893_ctu8_-15.271_ctd8_-11.605_cqq13_-2.625_cqq11_5.619_cqu1_-3.062_cqd1_8.844_ctq1_8.759_ctu1_7.743_ctd1_-9.404'> +5.2890304e+01 </wgt>
<wgt id='eftrwgt66_ctg_0.739_cqq83_-0.73_cqq81_-3.942_cqu8_0.197_cqd8_-20.568_ctq8_-3.855_ctu8_3.62_ctd8_-1.663_cqq13_1.279_cqq11_-5.868_cqu1_-1.596_cqd1_4.61_ctq1_-0.985_ctu1_5.278_ctd1_1.935'> +6.7469239e+00 </wgt>
<wgt id='eftrwgt67_ctg_-1.144_cqq83_-9.411_cqq81_11.632_cqu8_13.794_cqd8_19.35_ctq8_-9.734_ctu8_17.462_ctd8_-9.013_cqq13_6.095_cqq11_1.653_cqu1_10.71_cqd1_-11.055_ctq1_7.571_ctu1_0.484_ctd1_-1.685'> +5.3132214e+01 </wgt>
<wgt id='eftrwgt68_ctg_0.408_cqq83_3.73_cqq81_-12.673_cqu8_-15.054_cqd8_23.598_ctq8_0.269_ctu8_8.53_ctd8_-19.396_cqq13_1.648_cqq11_6.789_cqu1_-10.541_cqd1_-5.767_ctq1_-2.558_ctu1_-8.764_ctd1_1.857'> +1.0886369e+01 </wgt>
<wgt id='eftrwgt69_ctg_0.663_cqq83_-13.808_cqq81_11.681_cqu8_8.175_cqd8_23.585_ctq8_-6.295_ctu8_5.707_ctd8_-2.004_cqq13_2.652_cqq11_0.351_cqu1_-4.864_cqd1_13.53_ctq1_-5.642_ctu1_0.492_ctd1_8.029'> +2.4070831e+00 </wgt>
<wgt id='eftrwgt70_ctg_-0.454_cqq83_-0.455_cqq81_-2.236_cqu8_8.99_cqd8_14.139_ctq8_-10.102_ctu8_-6.093_ctd8_-2.425_cqq13_3.095_cqq11_-0.462_cqu1_-1.855_cqd1_11.152_ctq1_2.965_ctu1_0.951_ctd1_-6.03'> +6.5980658e+00 </wgt>
<wgt id='eftrwgt71_ctg_-0.477_cqq83_-16.758_cqq81_13.224_cqu8_13.232_cqd8_-5.763_ctq8_9.379_ctu8_-10.048_ctd8_-23.022_cqq13_4.391_cqq11_-6.178_cqu1_-8.099_cqd1_-8.009_ctq1_-1.03_ctu1_-2.674_ctd1_-1.681'> +1.1481219e+01 </wgt>
<wgt id='eftrwgt72_ctg_0.622_cqq83_2.696_cqq81_-10.207_cqu8_5.957_cqd8_7.886_ctq8_4.197_ctu8_8.121_ctd8_-20.035_cqq13_2.851_cqq11_-6.744_cqu1_-10.799_cqd1_2.202_ctq1_-7.508_ctu1_-1.701_ctd1_8.892'> +2.6481994e+01 </wgt>
<wgt id='eftrwgt73_ctg_-0.493_cqq83_10.355_cqq81_1.302_cqu8_-9.783_cqd8_-15.531_ctq8_-10.402_ctu8_5.144_ctd8_6.559_cqq13_5.572_cqq11_-0.688_cqu1_-7.729_cqd1_4.564_ctq1_-4.037_ctu1_3.296_ctd1_-5.207'> +7.7757508e+00 </wgt>
<wgt id='eftrwgt74_ctg_-1.313_cqq83_-14.474_cqq81_-0.652_cqu8_2.59_cqd8_16.401_ctq8_2.461_ctu8_-12.258_ctd8_-5.822_cqq13_6.708_cqq11_-5.017_cqu1_7.523_cqd1_10.388_ctq1_-3.975_ctu1_-5.142_ctd1_-12.623'> +1.7188093e+00 </wgt>
<wgt id='eftrwgt75_ctg_-0.166_cqq83_14.655_cqq81_-13.165_cqu8_13.182_cqd8_17.65_ctq8_8.035_ctu8_-7.41_ctd8_5.594_cqq13_-1.583_cqq11_4.47_cqu1_6.793_cqd1_9.148_ctq1_6.872_ctu1_4.564_ctd1_-3.17'> +5.0859745e+01 </wgt>
<wgt id='eftrwgt76_ctg_0.607_cqq83_-7.784_cqq81_0.889_cqu8_-5.808_cqd8_-18.52_ctq8_-10.702_ctu8_6.093_ctd8_5.795_cqq13_-4.86_cqq11_6.059_cqu1_5.977_cqd1_-3.82_ctq1_-0.432_ctu1_0.091_ctd1_12.704'> +2.2234166e-01 </wgt>
<wgt id='eftrwgt77_ctg_-0.008_cqq83_-13.549_cqq81_-2.371_cqu8_-17.548_cqd8_17.783_ctq8_-12.818_ctu8_-10.851_ctd8_-11.002_cqq13_-7.936_cqq11_-0.409_cqu1_4.737_cqd1_0.464_ctq1_-0.138_ctu1_-4.15_ctd1_2.286'> +3.0904027e+01 </wgt>
<wgt id='eftrwgt78_ctg_0.693_cqq83_-17.302_cqq81_-6.475_cqu8_7.814_cqd8_3.71_ctq8_7.916_ctu8_-4.439_ctd8_21.712_cqq13_-1.558_cqq11_5.054_cqu1_2.274_cqd1_7.748_ctq1_-4.741_ctu1_4.163_ctd1_-9.021'> +3.5403110e-01 </wgt>
<wgt id='eftrwgt79_ctg_-1.245_cqq83_-11.588_cqq81_7.305_cqu8_-18.227_cqd8_-8.677_ctq8_11.343_ctu8_2.055_ctd8_-10.604_cqq13_4.361_cqq11_6.251_cqu1_4.537_cqd1_-0.734_ctq1_3.998_ctu1_-6.261_ctd1_-5.045'> +7.0044503e+01 </wgt>
<wgt id='eftrwgt80_ctg_-0.18_cqq83_-10.265_cqq81_2.0_cqu8_-7.281_cqd8_10.418_ctq8_-8.392_ctu8_-11.821_ctd8_14.446_cqq13_4.32_cqq11_-7.909_cqu1_-1.266_cqd1_-1.485_ctq1_7.422_ctu1_-9.567_ctd1_-7.015'> +2.7867961e+00 </wgt>
<wgt id='eftrwgt81_ctg_0.953_cqq83_-15.744_cqq81_-8.719_cqu8_4.233_cqd8_5.5_ctq8_9.427_ctu8_-3.148_ctd8_13.913_cqq13_7.844_cqq11_-2.685_cqu1_-10.526_cqd1_-11.474_ctq1_1.94_ctu1_-0.862_ctd1_-11.271'> +1.1468259e+01 </wgt>
<wgt id='eftrwgt82_ctg_0.709_cqq83_-3.094_cqq81_5.584_cqu8_5.962_cqd8_-12.068_ctq8_7.256_ctu8_-14.777_ctd8_-14.389_cqq13_-4.278_cqq11_8.12_cqu1_0.179_cqd1_-1.651_ctq1_-8.145_ctu1_2.242_ctd1_-10.245'> +2.2481117e+01 </wgt>
<wgt id='eftrwgt83_ctg_0.687_cqq83_-1.156_cqq81_3.18_cqu8_-3.335_cqd8_-0.404_ctq8_-5.778_ctu8_6.62_ctd8_-17.153_cqq13_-5.912_cqq11_5.654_cqu1_-1.269_cqd1_8.004_ctq1_-1.868_ctu1_0.845_ctd1_4.292'> +5.0050535e+00 </wgt>
<wgt id='eftrwgt84_ctg_-0.183_cqq83_-0.308_cqq81_0.037_cqu8_14.309_cqd8_-5.805_ctq8_9.893_ctu8_-5.881_ctd8_-1.437_cqq13_-2.017_cqq11_-6.656_cqu1_-1.67_cqd1_-5.98_ctq1_-8.794_ctu1_2.683_ctd1_9.412'> +6.5356284e+01 </wgt>
<wgt id='eftrwgt85_ctg_-0.942_cqq83_15.035_cqq81_13.373_cqu8_-5.07_cqd8_16.019_ctq8_-8.366_ctu8_14.649_ctd8_22.16_cqq13_-4.681_cqq11_6.562_cqu1_-1.143_cqd1_-10.901_ctq1_-6.626_ctu1_7.385_ctd1_-3.635'> +3.4035552e+01 </wgt>
<wgt id='eftrwgt86_ctg_-0.142_cqq83_-2.994_cqq81_12.042_cqu8_8.306_cqd8_-8.182_ctq8_-12.155_ctu8_-0.571_ctd8_11.633_cqq13_-5.051_cqq11_1.519_cqu1_-1.733_cqd1_9.994_ctq1_-6.524_ctu1_4.94_ctd1_2.118'> +2.0642430e+01 </wgt>
<wgt id='eftrwgt87_ctg_0.929_cqq83_16.258_cqq81_4.432_cqu8_11.37_cqd8_2.732_ctq8_-0.209_ctu8_11.238_ctd8_0.002_cqq13_-3.184_cqq11_5.425_cqu1_-3.268_cqd1_11.628_ctq1_2.342_ctu1_-8.392_ctd1_13.454'> +6.3967973e+01 </wgt>
<wgt id='eftrwgt88_ctg_0.663_cqq83_-0.312_cqq81_4.634_cqu8_13.091_cqd8_20.152_ctq8_-11.08_ctu8_10.132_ctd8_8.016_cqq13_2.666_cqq11_-0.154_cqu1_10.589_cqd1_-1.792_ctq1_-0.235_ctu1_-1.608_ctd1_11.236'> +5.0817569e+00 </wgt>
<wgt id='eftrwgt89_ctg_-0.7_cqq83_-8.489_cqq81_-4.248_cqu8_-16.694_cqd8_11.319_ctq8_10.136_ctu8_16.621_ctd8_-12.449_cqq13_5.869_cqq11_0.2_cqu1_7.255_cqd1_6.776_ctq1_-7.91_ctu1_7.893_ctd1_-13.519'> +2.8765774e+00 </wgt>
<wgt id='eftrwgt90_ctg_1.035_cqq83_-14.726_cqq81_-10.269_cqu8_8.762_cqd8_-16.804_ctq8_-12.281_ctu8_-9.071_ctd8_-18.776_cqq13_-0.931_cqq11_-5.226_cqu1_2.228_cqd1_0.749_ctq1_4.043_ctu1_-9.625_ctd1_12.055'> +1.9462329e+01 </wgt>
<wgt id='eftrwgt91_ctg_0.582_cqq83_7.693_cqq81_-11.295_cqu8_-2.266_cqd8_14.634_ctq8_4.883_ctu8_17.79_ctd8_11.844_cqq13_-6.479_cqq11_-4.102_cqu1_2.603_cqd1_-3.346_ctq1_-0.515_ctu1_-6.838_ctd1_-11.52'> +2.8074053e+01 </wgt>
<wgt id='eftrwgt92_ctg_-1.029_cqq83_4.889_cqq81_-11.405_cqu8_13.309_cqd8_-14.979_ctq8_-5.195_ctu8_6.668_ctd8_-24.798_cqq13_5.441_cqq11_-0.506_cqu1_-0.753_cqd1_-13.543_ctq1_-8.67_ctu1_-7.915_ctd1_-0.334'> +3.0985072e+00 </wgt>
<wgt id='eftrwgt93_ctg_1.323_cqq83_-4.365_cqq81_-4.298_cqu8_7.237_cqd8_-13.74_ctq8_-0.526_ctu8_-16.032_ctd8_-23.867_cqq13_-2.711_cqq11_8.204_cqu1_-9.783_cqd1_-13.301_ctq1_5.357_ctu1_-4.585_ctd1_3.272'> +3.2361808e+01 </wgt>
<wgt id='eftrwgt94_ctg_0.923_cqq83_-5.687_cqq81_-9.274_cqu8_-6.946_cqd8_-18.634_ctq8_-2.87_ctu8_-10.48_ctd8_20.825_cqq13_0.818_cqq11_7.594_cqu1_-2.651_cqd1_-8.209_ctq1_-4.375_ctu1_-0.453_ctd1_-11.307'> +3.4835860e+00 </wgt>
<wgt id='eftrwgt95_ctg_-0.353_cqq83_16.887_cqq81_4.599_cqu8_5.271_cqd8_15.7_ctq8_9.777_ctu8_16.081_ctd8_11.396_cqq13_-1.084_cqq11_-4.79_cqu1_-0.778_cqd1_12.085_ctq1_-5.567_ctu1_-7.961_ctd1_2.198'> +7.5631359e+01 </wgt>
<wgt id='eftrwgt96_ctg_0.041_cqq83_-5.923_cqq81_-2.955_cqu8_4.903_cqd8_20.523_ctq8_-10.841_ctu8_-16.659_ctd8_-20.437_cqq13_-0.715_cqq11_3.365_cqu1_7.617_cqd1_-8.653_ctq1_-1.465_ctu1_-1.263_ctd1_-7.434'> +1.2682915e+00 </wgt>
<wgt id='eftrwgt97_ctg_0.464_cqq83_6.456_cqq81_3.991_cqu8_-17.621_cqd8_21.05_ctq8_-3.045_ctu8_-1.74_ctd8_-0.321_cqq13_-0.503_cqq11_-7.685_cqu1_3.634_cqd1_-8.072_ctq1_-8.465_ctu1_4.741_ctd1_-8.716'> +6.0094162e+01 </wgt>
<wgt id='eftrwgt98_ctg_1.109_cqq83_-17.675_cqq81_-12.841_cqu8_-7.769_cqd8_-4.881_ctq8_8.767_ctu8_1.909_ctd8_-17.434_cqq13_5.514_cqq11_4.151_cqu1_-4.537_cqd1_10.377_ctq1_-0.495_ctu1_-9.214_ctd1_-2.18'> +1.7196556e+01 </wgt>
<wgt id='eftrwgt99_ctg_0.407_cqq83_-15.227_cqq81_3.076_cqu8_16.069_cqd8_-14.34_ctq8_-10.144_ctu8_-13.132_ctd8_6.768_cqq13_-2.495_cqq11_-6.097_cqu1_-9.127_cqd1_6.952_ctq1_6.568_ctu1_4.211_ctd1_13.935'> +3.9235077e+00 </wgt>
<wgt id='eftrwgt100_ctg_-0.701_cqq83_-0.048_cqq81_-13.163_cqu8_5.634_cqd8_10.956_ctq8_-0.744_ctu8_7.675_ctd8_11.807_cqq13_5.749_cqq11_-2.151_cqu1_8.431_cqd1_-6.532_ctq1_6.71_ctu1_1.894_ctd1_-1.052'> +2.1757332e+01 </wgt>
<wgt id='eftrwgt101_ctg_-0.35_cqq83_14.955_cqq81_13.247_cqu8_12.366_cqd8_-17.494_ctq8_13.947_ctu8_15.163_ctd8_24.316_cqq13_-3.799_cqq11_-3.202_cqu1_6.22_cqd1_12.06_ctq1_-5.011_ctu1_-3.243_ctd1_-4.236'> +1.1117633e+02 </wgt>
<wgt id='eftrwgt102_ctg_0.556_cqq83_-5.267_cqq81_-10.439_cqu8_2.364_cqd8_0.675_ctq8_-12.861_ctu8_-7.633_ctd8_-19.227_cqq13_7.964_cqq11_-4.314_cqu1_-5.928_cqd1_-4.03_ctq1_5.914_ctu1_5.907_ctd1_11.347'> +1.9851191e+01 </wgt>
<wgt id='eftrwgt103_ctg_0.125_cqq83_-12.646_cqq81_10.46_cqu8_18.952_cqd8_-13.688_ctq8_-9.243_ctu8_-14.143_ctd8_-9.888_cqq13_-8.119_cqq11_3.122_cqu1_8.657_cqd1_7.658_ctq1_-7.962_ctu1_3.664_ctd1_-2.552'> +3.4814341e+01 </wgt>
<wgt id='eftrwgt104_ctg_-0.763_cqq83_-3.804_cqq81_11.607_cqu8_-13.419_cqd8_14.176_ctq8_-9.066_ctu8_-15.02_ctd8_-4.358_cqq13_-1.193_cqq11_-6.481_cqu1_4.998_cqd1_-9.789_ctq1_1.777_ctu1_10.322_ctd1_2.64'> +8.7794899e+00 </wgt>
<wgt id='eftrwgt105_ctg_-1.088_cqq83_12.665_cqq81_-11.087_cqu8_18.548_cqd8_-4.797_ctq8_-2.92_ctu8_2.89_ctd8_13.714_cqq13_6.529_cqq11_2.903_cqu1_9.448_cqd1_-11.012_ctq1_-0.553_ctu1_-10.792_ctd1_7.312'> +2.4663128e+01 </wgt>
<wgt id='eftrwgt106_ctg_-0.66_cqq83_13.87_cqq81_-10.837_cqu8_-12.598_cqd8_7.858_ctq8_-12.118_ctu8_-7.151_ctd8_16.078_cqq13_4.226_cqq11_0.29_cqu1_-10.828_cqd1_12.788_ctq1_7.2_ctu1_2.803_ctd1_-12.185'> +3.1327173e+01 </wgt>
<wgt id='eftrwgt107_ctg_0.987_cqq83_4.124_cqq81_-7.722_cqu8_-17.904_cqd8_-9.465_ctq8_-8.335_ctu8_11.217_ctd8_22.691_cqq13_-5.276_cqq11_2.989_cqu1_7.593_cqd1_-5.045_ctq1_1.607_ctu1_3.552_ctd1_13.817'> +7.3308067e-01 </wgt>
<wgt id='eftrwgt108_ctg_-0.161_cqq83_-2.662_cqq81_-3.151_cqu8_9.405_cqd8_-12.787_ctq8_6.797_ctu8_12.29_ctd8_-20.381_cqq13_6.286_cqq11_-1.665_cqu1_-10.66_cqd1_13.551_ctq1_-0.592_ctu1_-10.77_ctd1_-11.103'> +1.3938144e+01 </wgt>
<wgt id='eftrwgt109_ctg_-0.866_cqq83_17.321_cqq81_-1.402_cqu8_15.303_cqd8_-9.712_ctq8_-2.135_ctu8_4.236_ctd8_-2.625_cqq13_6.154_cqq11_-5.703_cqu1_2.095_cqd1_6.678_ctq1_-8.391_ctu1_-3.925_ctd1_1.624'> +2.7116107e+01 </wgt>
<wgt id='eftrwgt110_ctg_0.155_cqq83_-16.958_cqq81_-11.926_cqu8_-4.429_cqd8_12.271_ctq8_12.349_ctu8_9.754_ctd8_-5.943_cqq13_1.387_cqq11_-2.925_cqu1_8.241_cqd1_-0.988_ctq1_8.274_ctu1_-10.609_ctd1_-7.304'> +9.0070664e+00 </wgt>
<wgt id='eftrwgt111_ctg_-1.065_cqq83_14.73_cqq81_-1.172_cqu8_-15.353_cqd8_0.237_ctq8_10.108_ctu8_4.492_ctd8_24.01_cqq13_-1.328_cqq11_0.667_cqu1_-2.509_cqd1_0.719_ctq1_0.384_ctu1_-8.496_ctd1_-3.168'> +4.3847668e+01 </wgt>
<wgt id='eftrwgt112_ctg_0.963_cqq83_-9.182_cqq81_0.049_cqu8_8.605_cqd8_-14.263_ctq8_8.142_ctu8_-8.43_ctd8_-11.958_cqq13_-2.649_cqq11_1.046_cqu1_6.616_cqd1_7.998_ctq1_1.189_ctu1_-6.255_ctd1_6.95'> +8.4934382e+00 </wgt>
<wgt id='eftrwgt113_ctg_1.026_cqq83_-11.499_cqq81_-5.535_cqu8_17.173_cqd8_3.883_ctq8_-9.651_ctu8_-11.427_ctd8_18.837_cqq13_6.015_cqq11_6.509_cqu1_10.344_cqd1_-2.658_ctq1_-2.985_ctu1_-3.104_ctd1_9.041'> +1.9167653e+01 </wgt>
<wgt id='eftrwgt114_ctg_1.167_cqq83_14.15_cqq81_-2.248_cqu8_-3.57_cqd8_15.163_ctq8_-12.657_ctu8_5.129_ctd8_6.614_cqq13_-6.863_cqq11_-3.391_cqu1_-0.777_cqd1_-2.994_ctq1_1.952_ctu1_-7.447_ctd1_11.847'> +1.8526959e+01 </wgt>
<wgt id='eftrwgt115_ctg_0.982_cqq83_-16.13_cqq81_-2.864_cqu8_-3.251_cqd8_13.648_ctq8_-3.377_ctu8_-15.255_ctd8_-20.505_cqq13_6.864_cqq11_6.065_cqu1_1.403_cqd1_13.412_ctq1_6.891_ctu1_-5.305_ctd1_6.959'> +8.0598953e+01 </wgt>
<wgt id='eftrwgt116_ctg_0.484_cqq83_-5.877_cqq81_-0.844_cqu8_-8.226_cqd8_-12.543_ctq8_-7.938_ctu8_-14.308_ctd8_-16.759_cqq13_3.295_cqq11_-4.935_cqu1_1.553_cqd1_-2.747_ctq1_1.896_ctu1_-2.598_ctd1_1.468'> +2.4154491e-02 </wgt>
<wgt id='eftrwgt117_ctg_-0.766_cqq83_13.005_cqq81_4.278_cqu8_-5.789_cqd8_-2.642_ctq8_1.928_ctu8_-17.627_ctd8_13.206_cqq13_-3.352_cqq11_-4.623_cqu1_1.281_cqd1_-0.353_ctq1_-7.888_ctu1_-2.739_ctd1_-3.691'> +6.5553709e+01 </wgt>
<wgt id='eftrwgt118_ctg_-0.026_cqq83_16.863_cqq81_-3.657_cqu8_-14.653_cqd8_19.452_ctq8_-11.093_ctu8_7.169_ctd8_12.713_cqq13_2.219_cqq11_6.829_cqu1_-1.47_cqd1_13.329_ctq1_-8.726_ctu1_4.506_ctd1_-6.731'> +9.7626505e+00 </wgt>
<wgt id='eftrwgt119_ctg_-0.927_cqq83_14.324_cqq81_12.494_cqu8_-15.766_cqd8_-22.63_ctq8_7.771_ctu8_17.012_ctd8_-4.27_cqq13_-4.263_cqq11_7.096_cqu1_5.583_cqd1_7.465_ctq1_3.841_ctu1_9.204_ctd1_12.312'> +1.0343444e+02 </wgt>
<wgt id='eftrwgt120_ctg_-1.301_cqq83_2.61_cqq81_-0.228_cqu8_-13.019_cqd8_-7.21_ctq8_-10.88_ctu8_-12.7_ctd8_-9.515_cqq13_3.421_cqq11_-0.285_cqu1_-1.252_cqd1_-3.317_ctq1_7.885_ctu1_3.534_ctd1_11.001'> +2.6852068e+01 </wgt>
<wgt id='eftrwgt121_ctg_0.544_cqq83_-11.95_cqq81_-0.044_cqu8_-3.43_cqd8_-3.87_ctq8_-7.539_ctu8_-14.796_ctd8_-19.179_cqq13_3.035_cqq11_-7.307_cqu1_1.661_cqd1_-9.45_ctq1_-2.9_ctu1_7.446_ctd1_-4.846'> +1.3485620e+01 </wgt>
<wgt id='eftrwgt122_ctg_0.077_cqq83_12.997_cqq81_8.942_cqu8_-12.333_cqd8_-21.55_ctq8_8.94_ctu8_12.874_ctd8_-23.03_cqq13_7.882_cqq11_-0.681_cqu1_1.4_cqd1_6.361_ctq1_-0.884_ctu1_-0.375_ctd1_1.214'> +9.8398421e+01 </wgt>
<wgt id='eftrwgt123_ctg_-1.357_cqq83_9.311_cqq81_-6.821_cqu8_-3.271_cqd8_-16.074_ctq8_9.326_ctu8_14.404_ctd8_-2.447_cqq13_3.173_cqq11_-3.404_cqu1_2.525_cqd1_5.494_ctq1_-7.91_ctu1_-0.974_ctd1_4.439'> +2.2881769e+01 </wgt>
<wgt id='eftrwgt124_ctg_-1.223_cqq83_-12.321_cqq81_-7.848_cqu8_-2.265_cqd8_-5.02_ctq8_-13.565_ctu8_-9.074_ctd8_2.046_cqq13_-4.347_cqq11_5.557_cqu1_1.21_cqd1_-2.046_ctq1_-6.903_ctu1_-4.355_ctd1_2.297'> +3.4385051e+01 </wgt>
<wgt id='eftrwgt125_ctg_0.961_cqq83_6.0_cqq81_5.561_cqu8_-3.626_cqd8_-19.356_ctq8_-2.864_ctu8_-0.243_ctd8_23.255_cqq13_-8.112_cqq11_-5.996_cqu1_9.108_cqd1_-10.685_ctq1_-6.426_ctu1_-1.269_ctd1_3.35'> +8.9494938e+01 </wgt>
<wgt id='eftrwgt126_ctg_0.285_cqq83_-16.325_cqq81_0.476_cqu8_-16.347_cqd8_22.521_ctq8_-0.468_ctu8_-2.288_ctd8_22.57_cqq13_-7.864_cqq11_-2.689_cqu1_6.85_cqd1_8.701_ctq1_6.612_ctu1_10.799_ctd1_5.338'> +4.2083841e+00 </wgt>
<wgt id='eftrwgt127_ctg_-1.378_cqq83_-17.314_cqq81_-12.704_cqu8_-6.427_cqd8_-12.718_ctq8_4.311_ctu8_-7.334_ctd8_-24.506_cqq13_-8.01_cqq11_5.874_cqu1_0.468_cqd1_8.191_ctq1_-0.277_ctu1_8.517_ctd1_-7.478'> +1.2968279e+01 </wgt>
<wgt id='eftrwgt128_ctg_1.18_cqq83_-1.471_cqq81_2.433_cqu8_10.198_cqd8_23.306_ctq8_-12.125_ctu8_16.403_ctd8_18.18_cqq13_7.781_cqq11_-2.869_cqu1_-7.593_cqd1_-6.942_ctq1_0.572_ctu1_3.932_ctd1_-1.468'> +9.4718165e+00 </wgt>
<wgt id='eftrwgt129_ctg_0.941_cqq83_-4.592_cqq81_6.49_cqu8_-5.317_cqd8_16.947_ctq8_12.635_ctu8_-5.132_ctd8_22.403_cqq13_2.333_cqq11_-2.444_cqu1_7.188_cqd1_-3.684_ctq1_-5.675_ctu1_-4.027_ctd1_-1.358'> +3.3662857e+01 </wgt>
<wgt id='eftrwgt130_ctg_-0.208_cqq83_-17.622_cqq81_-2.397_cqu8_15.786_cqd8_15.249_ctq8_-1.44_ctu8_10.097_ctd8_-10.056_cqq13_-3.196_cqq11_4.986_cqu1_-0.332_cqd1_-13.619_ctq1_2.563_ctu1_1.892_ctd1_2.648'> +4.8960395e+00 </wgt>
<wgt id='eftrwgt131_ctg_1.247_cqq83_-17.63_cqq81_-10.818_cqu8_5.208_cqd8_0.681_ctq8_12.537_ctu8_-14.866_ctd8_3.091_cqq13_2.337_cqq11_-5.924_cqu1_5.379_cqd1_5.986_ctq1_-5.666_ctu1_10.553_ctd1_1.395'> +1.7962998e+01 </wgt>
<wgt id='eftrwgt132_ctg_-0.801_cqq83_7.262_cqq81_9.212_cqu8_-8.732_cqd8_-8.091_ctq8_-1.906_ctu8_3.948_ctd8_13.123_cqq13_2.692_cqq11_8.195_cqu1_0.96_cqd1_-1.571_ctq1_5.243_ctu1_-1.861_ctd1_-9.371'> +1.0306013e+02 </wgt>
<wgt id='eftrwgt133_ctg_-1.257_cqq83_16.117_cqq81_-9.715_cqu8_-7.571_cqd8_1.07_ctq8_2.477_ctu8_-7.002_ctd8_13.477_cqq13_-0.711_cqq11_7.763_cqu1_-6.041_cqd1_-7.251_ctq1_-2.998_ctu1_-2.904_ctd1_-12.567'> +2.1166780e+01 </wgt>
<wgt id='eftrwgt134_ctg_1.354_cqq83_-7.657_cqq81_-1.021_cqu8_-16.291_cqd8_1.184_ctq8_-2.275_ctu8_16.917_ctd8_-5.942_cqq13_5.969_cqq11_3.289_cqu1_-10.263_cqd1_4.064_ctq1_8.35_ctu1_-0.11_ctd1_0.257'> +7.4318523e+01 </wgt>
<wgt id='eftrwgt135_ctg_-0.715_cqq83_-9.614_cqq81_-10.763_cqu8_9.461_cqd8_21.044_ctq8_0.83_ctu8_16.276_ctd8_17.397_cqq13_7.427_cqq11_-7.592_cqu1_5.575_cqd1_-12.777_ctq1_0.413_ctu1_-0.337_ctd1_5.614'> +2.3194591e+00 </wgt>
<wgt id='eftrwgt136_ctg_1.148_cqq83_9.105_cqq81_7.25_cqu8_15.489_cqd8_-14.113_ctq8_-1.534_ctu8_-4.722_ctd8_-14.085_cqq13_7.64_cqq11_5.644_cqu1_6.289_cqd1_-3.464_ctq1_-4.467_ctu1_10.661_ctd1_-10.103'> +6.9407233e+01 </wgt>
<wgt id='eftrwgt137_ctg_0.519_cqq83_-3.88_cqq81_5.428_cqu8_-11.688_cqd8_12.458_ctq8_5.584_ctu8_4.192_ctd8_-4.494_cqq13_0.22_cqq11_6.429_cqu1_0.379_cqd1_-2.464_ctq1_3.48_ctu1_8.707_ctd1_10.184'> +5.2126957e+01 </wgt>
<wgt id='eftrwgt138_ctg_0.044_cqq83_15.014_cqq81_-2.24_cqu8_-0.07_cqd8_15.723_ctq8_4.233_ctu8_15.378_ctd8_22.326_cqq13_5.742_cqq11_-7.973_cqu1_5.127_cqd1_8.3_ctq1_-2.237_ctu1_-6.818_ctd1_9.184'> +3.3081626e+01 </wgt>
<wgt id='eftrwgt139_ctg_0.536_cqq83_3.108_cqq81_-2.815_cqu8_17.298_cqd8_-20.517_ctq8_-0.558_ctu8_5.522_ctd8_9.105_cqq13_7.706_cqq11_-1.121_cqu1_6.904_cqd1_-8.677_ctq1_0.168_ctu1_4.991_ctd1_3.884'> +2.3387723e+01 </wgt>
<wgt id='eftrwgt140_ctg_-1.222_cqq83_14.489_cqq81_7.936_cqu8_-5.001_cqd8_-7.099_ctq8_0.704_ctu8_-16.077_ctd8_15.282_cqq13_3.777_cqq11_4.884_cqu1_-3.897_cqd1_-3.233_ctq1_-0.56_ctu1_1.21_ctd1_-11.922'> +7.0081063e+01 </wgt>
<wgt id='eftrwgt141_ctg_-0.595_cqq83_-16.264_cqq81_7.534_cqu8_-4.512_cqd8_17.409_ctq8_3.217_ctu8_-8.193_ctd8_8.464_cqq13_-7.686_cqq11_-1.06_cqu1_4.135_cqd1_9.485_ctq1_-2.481_ctu1_4.42_ctd1_3.636'> +2.5508631e+01 </wgt>
<wgt id='eftrwgt142_ctg_1.208_cqq83_4.059_cqq81_6.781_cqu8_-5.717_cqd8_-21.408_ctq8_0.083_ctu8_14.943_ctd8_11.388_cqq13_0.694_cqq11_-5.103_cqu1_-7.402_cqd1_13.43_ctq1_3.406_ctu1_2.945_ctd1_5.188'> +2.8306211e+01 </wgt>
<wgt id='eftrwgt143_ctg_0.787_cqq83_2.859_cqq81_-12.404_cqu8_17.905_cqd8_18.147_ctq8_5.594_ctu8_13.171_ctd8_-8.3_cqq13_-1.709_cqq11_3.715_cqu1_-2.267_cqd1_0.319_ctq1_-2.513_ctu1_-6.093_ctd1_0.66'> +5.0128116e+00 </wgt>
<wgt id='eftrwgt144_ctg_0.369_cqq83_12.119_cqq81_10.451_cqu8_-4.308_cqd8_10.751_ctq8_2.903_ctu8_-16.453_ctd8_12.168_cqq13_-7.8_cqq11_-4.495_cqu1_-7.968_cqd1_-11.778_ctq1_-0.673_ctu1_9.838_ctd1_7.574'> +7.1527483e+01 </wgt>
<wgt id='eftrwgt145_ctg_-0.314_cqq83_-7.538_cqq81_9.523_cqu8_-0.965_cqd8_7.921_ctq8_-3.669_ctu8_-17.137_ctd8_13.302_cqq13_-0.272_cqq11_-1.659_cqu1_-4.888_cqd1_2.565_ctq1_-4.075_ctu1_7.665_ctd1_4.628'> +9.0959882e+00 </wgt>
<wgt id='eftrwgt146_ctg_-0.028_cqq83_17.018_cqq81_4.288_cqu8_2.423_cqd8_9.91_ctq8_-1.803_ctu8_-7.374_ctd8_-22.743_cqq13_1.412_cqq11_1.518_cqu1_-5.031_cqd1_4.621_ctq1_-2.805_ctu1_-7.971_ctd1_2.504'> +4.1602253e+01 </wgt>
<wgt id='eftrwgt147_ctg_0.512_cqq83_9.531_cqq81_-2.016_cqu8_15.155_cqd8_-1.954_ctq8_-13.237_ctu8_1.868_ctd8_5.908_cqq13_-7.773_cqq11_7.257_cqu1_4.489_cqd1_2.963_ctq1_-3.777_ctu1_5.458_ctd1_-6.432'> +5.3180896e+00 </wgt>
<wgt id='eftrwgt148_ctg_-0.482_cqq83_17.097_cqq81_10.457_cqu8_-6.705_cqd8_-13.185_ctq8_-4.371_ctu8_14.509_ctd8_-13.32_cqq13_1.822_cqq11_0.354_cqu1_7.002_cqd1_10.541_ctq1_5.822_ctu1_5.744_ctd1_-13.15'> +7.5700326e+01 </wgt>
<wgt id='eftrwgt149_ctg_-0.905_cqq83_0.86_cqq81_-13.515_cqu8_11.771_cqd8_-1.866_ctq8_13.439_ctu8_0.144_ctd8_13.675_cqq13_-5.569_cqq11_-7.731_cqu1_1.84_cqd1_3.468_ctq1_-5.507_ctu1_1.982_ctd1_-13.061'> +7.1117540e+01 </wgt>
<wgt id='eftrwgt150_ctg_0.0_cqq83_-11.426_cqq81_-6.524_cqu8_-16.088_cqd8_-21.27_ctq8_10.524_ctu8_14.233_ctd8_17.255_cqq13_4.89_cqq11_-4.416_cqu1_4.918_cqd1_-11.767_ctq1_1.268_ctu1_3.231_ctd1_-6.475'> +2.6032486e+00 </wgt>
<wgt id='eftrwgt151_ctg_-0.918_cqq83_-17.499_cqq81_-6.826_cqu8_10.016_cqd8_16.971_ctq8_1.599_ctu8_16.783_ctd8_5.312_cqq13_-2.351_cqq11_-1.209_cqu1_0.269_cqd1_-8.867_ctq1_-7.829_ctu1_-1.326_ctd1_-0.175'> +3.9872506e+01 </wgt>
<wgt id='eftrwgt152_ctg_-0.246_cqq83_8.939_cqq81_-6.847_cqu8_-18.344_cqd8_21.999_ctq8_6.606_ctu8_9.509_ctd8_17.198_cqq13_-1.071_cqq11_7.466_cqu1_-6.387_cqd1_-1.912_ctq1_8.495_ctu1_-3.261_ctd1_8.87'> +8.1519578e+01 </wgt>
<wgt id='eftrwgt153_ctg_0.903_cqq83_-16.714_cqq81_4.491_cqu8_13.339_cqd8_3.836_ctq8_10.658_ctu8_1.169_ctd8_-12.868_cqq13_-4.118_cqq11_5.124_cqu1_5.936_cqd1_-5.521_ctq1_-6.529_ctu1_-3.471_ctd1_-8.961'> +1.0302385e+01 </wgt>
<wgt id='eftrwgt154_ctg_-0.773_cqq83_-11.295_cqq81_11.399_cqu8_12.409_cqd8_-7.958_ctq8_-6.63_ctu8_17.921_ctd8_-4.387_cqq13_-1.075_cqq11_-3.648_cqu1_0.733_cqd1_9.925_ctq1_-5.979_ctu1_6.286_ctd1_-8.945'> +2.3077162e+01 </wgt>
<wgt id='eftrwgt155_ctg_-1.155_cqq83_10.436_cqq81_11.789_cqu8_11.375_cqd8_0.293_ctq8_-12.103_ctu8_-1.324_ctd8_-13.307_cqq13_0.647_cqq11_-1.508_cqu1_4.529_cqd1_-4.847_ctq1_-1.864_ctu1_7.458_ctd1_-2.56'> +1.4960450e+01 </wgt>
<wgt id='eftrwgt156_ctg_1.116_cqq83_-1.502_cqq81_7.154_cqu8_-6.575_cqd8_-19.147_ctq8_-2.196_ctu8_15.471_ctd8_-13.501_cqq13_6.413_cqq11_3.8_cqu1_-1.927_cqd1_3.978_ctq1_3.939_ctu1_-0.696_ctd1_7.298'> +7.3436378e+01 </wgt>
<wgt id='eftrwgt157_ctg_-0.739_cqq83_2.709_cqq81_13.851_cqu8_9.744_cqd8_-15.601_ctq8_-3.406_ctu8_0.534_ctd8_13.826_cqq13_-5.94_cqq11_0.154_cqu1_4.119_cqd1_-0.999_ctq1_7.262_ctu1_1.145_ctd1_4.349'> +2.5441928e+01 </wgt>
<wgt id='eftrwgt158_ctg_-0.16_cqq83_8.752_cqq81_-10.353_cqu8_13.772_cqd8_-19.74_ctq8_1.97_ctu8_-17.022_ctd8_-15.946_cqq13_4.368_cqq11_-3.748_cqu1_-3.331_cqd1_1.681_ctq1_0.02_ctu1_3.467_ctd1_11.988'> +7.4375072e+00 </wgt>
<wgt id='eftrwgt159_ctg_-0.773_cqq83_-5.383_cqq81_11.182_cqu8_14.253_cqd8_22.486_ctq8_4.123_ctu8_16.717_ctd8_16.197_cqq13_7.633_cqq11_3.65_cqu1_3.518_cqd1_4.557_ctq1_0.213_ctu1_-8.115_ctd1_5.813'> +5.8565567e+01 </wgt>
<wgt id='eftrwgt160_ctg_-0.954_cqq83_13.029_cqq81_10.509_cqu8_2.914_cqd8_-7.008_ctq8_3.519_ctu8_-4.882_ctd8_-8.587_cqq13_-4.654_cqq11_6.741_cqu1_-8.034_cqd1_8.536_ctq1_7.776_ctu1_8.243_ctd1_-6.062'> +9.4256918e+01 </wgt>
<wgt id='eftrwgt161_ctg_0.783_cqq83_-0.823_cqq81_-10.667_cqu8_6.458_cqd8_-6.599_ctq8_5.205_ctu8_-17.575_ctd8_-8.783_cqq13_-6.096_cqq11_-7.308_cqu1_-4.219_cqd1_4.937_ctq1_-6.352_ctu1_4.953_ctd1_3.017'> +7.8795647e+01 </wgt>
<wgt id='eftrwgt162_ctg_-0.671_cqq83_16.815_cqq81_-12.317_cqu8_1.448_cqd8_10.899_ctq8_4.606_ctu8_-11.122_ctd8_-10.201_cqq13_4.82_cqq11_3.575_cqu1_-8.572_cqd1_11.857_ctq1_5.276_ctu1_-9.587_ctd1_8.531'> +7.1172246e+01 </wgt>
<wgt id='eftrwgt163_ctg_1.242_cqq83_16.122_cqq81_-8.636_cqu8_-5.852_cqd8_7.335_ctq8_-5.7_ctu8_-13.545_ctd8_24.321_cqq13_5.114_cqq11_-6.63_cqu1_-4.255_cqd1_8.437_ctq1_-6.875_ctu1_9.128_ctd1_2.843'> +2.0611448e+01 </wgt>
<wgt id='eftrwgt164_ctg_1.092_cqq83_-5.055_cqq81_-8.599_cqu8_4.203_cqd8_-7.68_ctq8_-11.588_ctu8_0.276_ctd8_17.336_cqq13_-7.727_cqq11_-5.834_cqu1_-7.894_cqd1_-13.963_ctq1_8.207_ctu1_2.956_ctd1_-11.592'> +1.1747462e+01 </wgt>
<wgt id='eftrwgt165_ctg_0.595_cqq83_4.636_cqq81_-0.11_cqu8_-0.581_cqd8_-20.832_ctq8_-0.558_ctu8_4.659_ctd8_14.601_cqq13_-7.948_cqq11_3.039_cqu1_4.976_cqd1_-0.906_ctq1_-5.244_ctu1_-2.665_ctd1_-11.849'> +2.6445716e+01 </wgt>
<wgt id='eftrwgt166_ctg_1.216_cqq83_5.127_cqq81_1.484_cqu8_12.31_cqd8_15.332_ctq8_-1.18_ctu8_2.062_ctd8_7.64_cqq13_-3.138_cqq11_3.748_cqu1_-2.564_cqd1_-4.289_ctq1_4.03_ctu1_7.302_ctd1_-7.704'> +2.8908439e+01 </wgt>
<wgt id='eftrwgt167_ctg_1.033_cqq83_5.72_cqq81_-1.985_cqu8_-0.401_cqd8_0.76_ctq8_-4.788_ctu8_5.904_ctd8_-7.804_cqq13_5.806_cqq11_-6.292_cqu1_-1.952_cqd1_-8.265_ctq1_2.846_ctu1_-6.057_ctd1_7.749'> +1.2088265e+01 </wgt>
<wgt id='eftrwgt168_ctg_-0.37_cqq83_17.55_cqq81_9.651_cqu8_-15.831_cqd8_-2.866_ctq8_-6.609_ctu8_-14.397_ctd8_5.753_cqq13_5.663_cqq11_-8.112_cqu1_-9.915_cqd1_6.099_ctq1_-0.019_ctu1_-1.021_ctd1_-5.252'> +3.9089960e+01 </wgt>
<wgt id='eftrwgt169_ctg_-1.172_cqq83_17.994_cqq81_-4.282_cqu8_-10.241_cqd8_-2.149_ctq8_-9.811_ctu8_-0.052_ctd8_20.563_cqq13_0.796_cqq11_-3.46_cqu1_8.811_cqd1_-11.665_ctq1_2.613_ctu1_-2.034_ctd1_-11.62'> +7.7790210e+00 </wgt>
<wgt id='eftrwgt170_ctg_-1.173_cqq83_-5.111_cqq81_9.87_cqu8_12.84_cqd8_15.747_ctq8_6.145_ctu8_16.166_ctd8_21.901_cqq13_1.621_cqq11_-4.815_cqu1_-6.967_cqd1_-9.672_ctq1_8.708_ctu1_-3.905_ctd1_5.596'> +2.9203287e+01 </wgt>
<wgt id='eftrwgt171_ctg_-0.487_cqq83_-3.728_cqq81_-2.089_cqu8_-8.617_cqd8_-3.165_ctq8_5.221_ctu8_-6.935_ctd8_-10.922_cqq13_2.93_cqq11_-3.943_cqu1_0.026_cqd1_10.454_ctq1_1.412_ctu1_-4.837_ctd1_4.419'> +5.3690206e+00 </wgt>
<wgt id='eftrwgt172_ctg_0.395_cqq83_8.99_cqq81_-3.002_cqu8_-13.401_cqd8_-8.393_ctq8_6.268_ctu8_10.287_ctd8_3.578_cqq13_-0.326_cqq11_0.491_cqu1_-1.452_cqd1_0.292_ctq1_2.055_ctu1_8.333_ctd1_-11.0'> +3.1460495e+01 </wgt>
<wgt id='eftrwgt173_ctg_-0.268_cqq83_-9.609_cqq81_-10.088_cqu8_-10.258_cqd8_2.411_ctq8_-9.923_ctu8_-12.813_ctd8_-11.549_cqq13_-0.115_cqq11_0.881_cqu1_3.83_cqd1_-7.017_ctq1_-5.831_ctu1_5.916_ctd1_9.799'> +2.0253783e+01 </wgt>
<wgt id='eftrwgt174_ctg_0.0_cqq83_14.255_cqq81_-3.162_cqu8_7.632_cqd8_8.455_ctq8_-10.706_ctu8_12.248_ctd8_-7.818_cqq13_-7.674_cqq11_3.169_cqu1_-10.606_cqd1_10.997_ctq1_7.461_ctu1_-1.024_ctd1_-12.78'> +1.1395323e+01 </wgt>
<wgt id='eftrwgt175_ctg_0.97_cqq83_0.362_cqq81_12.475_cqu8_-6.155_cqd8_12.941_ctq8_-11.631_ctu8_12.793_ctd8_5.998_cqq13_5.415_cqq11_3.61_cqu1_3.086_cqd1_11.222_ctq1_-7.83_ctu1_7.604_ctd1_-6.316'> +1.3271624e+01 </wgt>
<wgt id='eftrwgt176_ctg_-0.671_cqq83_9.217_cqq81_12.675_cqu8_-5.504_cqd8_11.909_ctq8_-13.928_ctu8_3.526_ctd8_12.153_cqq13_6.419_cqq11_-4.462_cqu1_-8.472_cqd1_-6.853_ctq1_-5.497_ctu1_9.273_ctd1_7.938'> +1.4075295e+01 </wgt>
<wgt id='eftrwgt177_ctg_-0.305_cqq83_7.149_cqq81_-4.524_cqu8_-16.678_cqd8_-16.144_ctq8_5.076_ctu8_-17.746_ctd8_16.893_cqq13_4.267_cqq11_2.618_cqu1_4.353_cqd1_8.975_ctq1_4.66_ctu1_3.456_ctd1_-10.007'> +5.6498119e+01 </wgt>
<wgt id='eftrwgt178_ctg_-0.022_cqq83_13.793_cqq81_-0.578_cqu8_13.877_cqd8_-10.596_ctq8_10.476_ctu8_5.651_ctd8_8.781_cqq13_7.781_cqq11_-0.157_cqu1_-3.425_cqd1_10.096_ctq1_-6.687_ctu1_-1.677_ctd1_2.543'> +5.4222006e+01 </wgt>
<wgt id='eftrwgt179_ctg_0.497_cqq83_-6.916_cqq81_13.035_cqu8_-5.975_cqd8_12.419_ctq8_5.679_ctu8_-2.58_ctd8_-17.339_cqq13_-3.741_cqq11_-1.097_cqu1_-5.551_cqd1_-0.983_ctq1_-5.692_ctu1_4.263_ctd1_4.456'> +3.6772495e+01 </wgt>
<wgt id='sm_point'> +7.0137053e+00 </wgt>
<wgt id='1001'> +1.1579678e+02 </wgt>
<wgt id='1002'> +9.9656109e+01 </wgt>
<wgt id='1003'> +9.9656109e+01 </wgt>
<wgt id='1004'> +1.1825445e+02 </wgt>
<wgt id='1005'> +9.6083990e+01 </wgt>
<wgt id='1006'> +9.7045324e+01 </wgt>
<wgt id='1007'> +8.4630266e+01 </wgt>
<wgt id='1008'> +8.4630266e+01 </wgt>
<wgt id='1009'> +9.8911772e+01 </wgt>
<wgt id='1010'> +8.1844291e+01 </wgt>
<wgt id='1011'> +1.4067369e+02 </wgt>
<wgt id='1012'> +1.1914435e+02 </wgt>
<wgt id='1013'> +1.1914435e+02 </wgt>
<wgt id='1014'> +1.4400406e+02 </wgt>
<wgt id='1015'> +1.1446140e+02 </wgt>
<wgt id='1016'> +1.1658963e+02 </wgt>
<wgt id='1017'> +9.9925493e+01 </wgt>
<wgt id='1018'> +9.9925493e+01 </wgt>
<wgt id='1019'> +1.1914435e+02 </wgt>
<wgt id='1020'> +9.6257362e+01 </wgt>
<wgt id='1021'> +9.7709788e+01 </wgt>
<wgt id='1022'> +8.4859033e+01 </wgt>
<wgt id='1023'> +8.4859033e+01 </wgt>
<wgt id='1024'> +9.9656109e+01 </wgt>
<wgt id='1025'> +8.1991970e+01 </wgt>
<wgt id='1026'> +1.4163687e+02 </wgt>
<wgt id='1027'> +1.1946641e+02 </wgt>
<wgt id='1028'> +1.1946641e+02 </wgt>
<wgt id='1029'> +1.4508773e+02 </wgt>
<wgt id='1030'> +1.1466794e+02 </wgt>
<wgt id='1031'> +1.1428027e+02 </wgt>
<wgt id='1032'> +9.8911772e+01 </wgt>
<wgt id='1033'> +9.8911772e+01 </wgt>
<wgt id='1034'> +1.1660279e+02 </wgt>
<wgt id='1035'> +9.5483588e+01 </wgt>
<wgt id='1036'> +9.5774391e+01 </wgt>
<wgt id='1037'> +8.3998158e+01 </wgt>
<wgt id='1038'> +8.3998158e+01 </wgt>
<wgt id='1039'> +9.7530265e+01 </wgt>
<wgt id='1040'> +8.1332869e+01 </wgt>
<wgt id='1041'> +1.3883138e+02 </wgt>
<wgt id='1042'> +1.1825445e+02 </wgt>
<wgt id='1043'> +1.1825445e+02 </wgt>
<wgt id='1044'> +1.4199275e+02 </wgt>
<wgt id='1045'> +1.1374617e+02 </wgt>
<wgt id='1046'> +1.3571914e+02 </wgt>
<wgt id='1047'> +1.0105811e+02 </wgt>
<wgt id='1048'> +1.1579678e+02 </wgt>
<wgt id='1049'> +1.1575579e+02 </wgt>
<wgt id='1050'> +1.1568937e+02 </wgt>
<wgt id='1051'> +1.1563233e+02 </wgt>
<wgt id='1052'> +1.1573589e+02 </wgt>
<wgt id='1053'> +1.1603070e+02 </wgt>
<wgt id='1054'> +1.1540788e+02 </wgt>
<wgt id='1055'> +1.1593809e+02 </wgt>
<wgt id='1056'> +1.1545912e+02 </wgt>
<wgt id='1057'> +1.1647674e+02 </wgt>
<wgt id='1058'> +1.1527957e+02 </wgt>
<wgt id='1059'> +1.1580435e+02 </wgt>
<wgt id='1060'> +1.1557138e+02 </wgt>
<wgt id='1061'> +1.1581606e+02 </wgt>
<wgt id='1062'> +1.1610876e+02 </wgt>
<wgt id='1063'> +1.1629709e+02 </wgt>
<wgt id='1064'> +1.1566668e+02 </wgt>
<wgt id='1065'> +1.1569572e+02 </wgt>
<wgt id='1066'> +1.1524997e+02 </wgt>
<wgt id='1067'> +1.1568720e+02 </wgt>
<wgt id='1068'> +1.1532503e+02 </wgt>
<wgt id='1069'> +1.1542382e+02 </wgt>
<wgt id='1070'> +1.1646159e+02 </wgt>
<wgt id='1071'> +1.1537254e+02 </wgt>
<wgt id='1072'> +1.1540439e+02 </wgt>
<wgt id='1073'> +1.1559120e+02 </wgt>
<wgt id='1074'> +1.1575143e+02 </wgt>
<wgt id='1075'> +1.1571672e+02 </wgt>
<wgt id='1076'> +1.1618753e+02 </wgt>
<wgt id='1077'> +1.1646294e+02 </wgt>
<wgt id='1078'> +1.1606732e+02 </wgt>
<wgt id='1079'> +1.1703087e+02 </wgt>
<wgt id='1080'> +1.1568682e+02 </wgt>
<wgt id='1081'> +1.1594043e+02 </wgt>
<wgt id='1082'> +1.1609651e+02 </wgt>
<wgt id='1083'> +1.1568075e+02 </wgt>
<wgt id='1084'> +1.1535540e+02 </wgt>
<wgt id='1085'> +1.1662808e+02 </wgt>
<wgt id='1086'> +1.1588809e+02 </wgt>
<wgt id='1087'> +1.1573282e+02 </wgt>
<wgt id='1088'> +1.1646263e+02 </wgt>
<wgt id='1089'> +1.1624782e+02 </wgt>
<wgt id='1090'> +1.1595814e+02 </wgt>
<wgt id='1091'> +1.1595822e+02 </wgt>
<wgt id='1092'> +1.1563178e+02 </wgt>
<wgt id='1093'> +1.1571274e+02 </wgt>
<wgt id='1094'> +1.1549429e+02 </wgt>
<wgt id='1095'> +1.1566385e+02 </wgt>
<wgt id='1096'> +1.1547518e+02 </wgt>
<wgt id='1097'> +1.1575307e+02 </wgt>
<wgt id='1098'> +1.1569099e+02 </wgt>
<wgt id='1099'> +1.1561602e+02 </wgt>
<wgt id='1100'> +1.1604984e+02 </wgt>
<wgt id='1101'> +1.1564525e+02 </wgt>
<wgt id='1102'> +1.1592059e+02 </wgt>
<wgt id='1103'> +1.1587031e+02 </wgt>
<wgt id='1104'> +1.1618774e+02 </wgt>
<wgt id='1105'> +1.1599055e+02 </wgt>
<wgt id='1106'> +1.1568788e+02 </wgt>
<wgt id='1107'> +1.1608358e+02 </wgt>
<wgt id='1108'> +1.1578062e+02 </wgt>
<wgt id='1109'> +1.1573863e+02 </wgt>
<wgt id='1110'> +1.1578153e+02 </wgt>
<wgt id='1111'> +1.1590683e+02 </wgt>
<wgt id='1112'> +1.1592959e+02 </wgt>
<wgt id='1113'> +1.1577892e+02 </wgt>
<wgt id='1114'> +1.1567439e+02 </wgt>
<wgt id='1115'> +1.1586760e+02 </wgt>
<wgt id='1116'> +1.1559443e+02 </wgt>
<wgt id='1117'> +1.1585837e+02 </wgt>
<wgt id='1118'> +1.1570622e+02 </wgt>
<wgt id='1119'> +1.1579181e+02 </wgt>
<wgt id='1120'> +1.1586118e+02 </wgt>
<wgt id='1121'> +1.1596325e+02 </wgt>
<wgt id='1122'> +1.1582293e+02 </wgt>
<wgt id='1123'> +1.1582631e+02 </wgt>
<wgt id='1124'> +1.1580284e+02 </wgt>
<wgt id='1125'> +1.1574817e+02 </wgt>
<wgt id='1126'> +1.1578732e+02 </wgt>
<wgt id='1127'> +1.1576550e+02 </wgt>
<wgt id='1128'> +1.1582691e+02 </wgt>
<wgt id='1129'> +1.1578960e+02 </wgt>
<wgt id='1130'> +1.1585709e+02 </wgt>
<wgt id='1131'> +1.1584146e+02 </wgt>
<wgt id='1132'> +1.1583616e+02 </wgt>
<wgt id='1133'> +1.1578321e+02 </wgt>
<wgt id='1134'> +1.1570820e+02 </wgt>
<wgt id='1135'> +1.1583937e+02 </wgt>
<wgt id='1136'> +1.1575655e+02 </wgt>
<wgt id='1137'> +1.1585372e+02 </wgt>
<wgt id='1138'> +1.1586181e+02 </wgt>
<wgt id='1139'> +1.1579573e+02 </wgt>
<wgt id='1140'> +1.1588997e+02 </wgt>
<wgt id='1141'> +1.1578964e+02 </wgt>
<wgt id='1142'> +1.1581690e+02 </wgt>
<wgt id='1143'> +1.1579902e+02 </wgt>
<wgt id='1144'> +1.1584100e+02 </wgt>
<wgt id='1145'> +1.1583933e+02 </wgt>
<wgt id='1146'> +1.1577912e+02 </wgt>
<wgt id='1147'> +1.1583690e+02 </wgt>
<wgt id='1148'> +1.1579678e+02 </wgt>
<wgt id='1149'> +1.0944564e+02 </wgt>
<wgt id='1150'> +1.2251640e+02 </wgt>
<wgt id='1151'> +1.1579678e+02 </wgt>
<wgt id='1152'> +1.2243872e+02 </wgt>
<wgt id='1153'> +1.1732237e+02 </wgt>
<wgt id='1154'> +1.1375640e+02 </wgt>
<wgt id='1155'> +1.1370828e+02 </wgt>
<wgt id='1156'> +1.1287373e+02 </wgt>
<wgt id='1157'> +1.1978363e+02 </wgt>
<wgt id='1158'> +1.1812741e+02 </wgt>
<wgt id='1159'> +1.1521487e+02 </wgt>
<wgt id='1160'> +1.1286335e+02 </wgt>
<wgt id='1161'> +1.0760520e+02 </wgt>
<wgt id='1162'> +1.1620886e+02 </wgt>
<wgt id='1163'> +1.1286336e+02 </wgt>
<wgt id='1164'> +1.1379450e+02 </wgt>
<wgt id='1165'> +1.1950701e+02 </wgt>
<wgt id='1166'> +1.1739614e+02 </wgt>
<wgt id='1167'> +1.1517679e+02 </wgt>
<wgt id='1168'> +1.1512798e+02 </wgt>
<wgt id='1169'> +1.1440962e+02 </wgt>
<wgt id='1170'> +1.1748882e+02 </wgt>
<wgt id='1171'> +1.1152354e+02 </wgt>
<wgt id='1172'> +1.1636649e+02 </wgt>
<wgt id='1173'> +1.1897336e+02 </wgt>
<wgt id='1174'> +1.1811626e+02 </wgt>
<wgt id='1175'> +1.1200403e+02 </wgt>
<wgt id='1176'> +1.1731583e+02 </wgt>
<wgt id='1177'> +1.2203465e+02 </wgt>
<wgt id='1178'> +1.1234603e+02 </wgt>
<wgt id='1179'> +1.1663687e+02 </wgt>
<wgt id='1180'> +1.1534079e+02 </wgt>
<wgt id='1181'> +1.1647594e+02 </wgt>
<wgt id='1182'> +1.1849342e+02 </wgt>
<wgt id='1183'> +1.1495206e+02 </wgt>
<wgt id='1184'> +1.1913125e+02 </wgt>
<wgt id='1185'> +1.1134341e+02 </wgt>
<wgt id='1186'> +1.1576269e+02 </wgt>
<wgt id='1187'> +1.1843679e+02 </wgt>
<wgt id='1188'> +1.1503159e+02 </wgt>
<wgt id='1189'> +1.1503239e+02 </wgt>
<wgt id='1190'> +1.1644845e+02 </wgt>
<wgt id='1191'> +1.1956173e+02 </wgt>
<wgt id='1192'> +1.1734521e+02 </wgt>
<wgt id='1193'> +1.1689166e+02 </wgt>
<wgt id='1194'> +1.1499486e+02 </wgt>
<wgt id='1195'> +1.1736939e+02 </wgt>
<wgt id='1196'> +1.1947948e+02 </wgt>
<wgt id='1197'> +1.1749187e+02 </wgt>
<wgt id='1198'> +1.1724277e+02 </wgt>
<wgt id='1199'> +1.1669059e+02 </wgt>
<wgt id='1200'> +1.1837110e+02 </wgt>
<wgt id='1201'> +1.1239231e+02 </wgt>
<wgt id='1202'> +1.1429332e+02 </wgt>
<wgt id='1203'> +1.1590376e+02 </wgt>
<wgt id='1204'> +1.1677400e+02 </wgt>
<wgt id='1205'> +1.1677163e+02 </wgt>
<wgt id='1206'> +1.2045621e+02 </wgt>
<wgt id='1207'> +1.1364991e+02 </wgt>
<wgt id='1208'> +1.1612356e+02 </wgt>
<wgt id='1209'> +1.1692940e+02 </wgt>
<wgt id='1210'> +1.1800851e+02 </wgt>
<wgt id='1211'> +1.2058160e+02 </wgt>
<wgt id='1212'> +1.1388717e+02 </wgt>
<wgt id='1213'> +1.1416811e+02 </wgt>
<wgt id='1214'> +1.1473605e+02 </wgt>
<wgt id='1215'> +1.1536241e+02 </wgt>
<wgt id='1216'> +1.1828004e+02 </wgt>
<wgt id='1217'> +1.2273876e+02 </wgt>
<wgt id='1218'> +1.1737317e+02 </wgt>
<wgt id='1219'> +1.1678722e+02 </wgt>
<wgt id='1220'> +1.1720421e+02 </wgt>
<wgt id='1221'> +1.1344110e+02 </wgt>
<wgt id='1222'> +1.1449404e+02 </wgt>
<wgt id='1223'> +1.1247688e+02 </wgt>
<wgt id='1224'> +1.1189361e+02 </wgt>
<wgt id='1225'> +1.1216520e+02 </wgt>
<wgt id='1226'> +1.1384390e+02 </wgt>
<wgt id='1227'> +1.2072040e+02 </wgt>
<wgt id='1228'> +1.1081795e+02 </wgt>
<wgt id='1229'> +1.1845221e+02 </wgt>
<wgt id='1230'> +1.1624364e+02 </wgt>
<wgt id='1231'> +1.1559442e+02 </wgt>
<wgt id='1232'> +1.1476261e+02 </wgt>
<wgt id='1233'> +1.1517679e+02 </wgt>
<wgt id='1234'> +1.1456978e+02 </wgt>
<wgt id='1235'> +1.1403973e+02 </wgt>
<wgt id='1236'> +1.1679570e+02 </wgt>
<wgt id='1237'> +1.1550658e+02 </wgt>
<wgt id='1238'> +1.1125915e+02 </wgt>
<wgt id='1239'> +1.1364337e+02 </wgt>
<wgt id='1240'> +1.0841094e+02 </wgt>
<wgt id='1241'> +1.1577778e+02 </wgt>
<wgt id='1242'> +1.1640349e+02 </wgt>
<wgt id='1243'> +1.1315214e+02 </wgt>
<wgt id='1244'> +1.1347641e+02 </wgt>
<wgt id='1245'> +1.1316598e+02 </wgt>
<wgt id='1246'> +1.1264283e+02 </wgt>
<wgt id='1247'> +1.1979652e+02 </wgt>
<wgt id='1248'> +1.1674606e+02 </wgt>
<wgt id='1249'> +1.1606728e+02 </wgt>
<wgt id='1250'> +1.1753772e+02 </wgt>
<wgt id='1251'> +1.1577720e+02 </wgt>
<wgt id='1252'> +1.1586786e+02 </wgt>
<wgt id='1253'> +1.1588716e+02 </wgt>
<wgt id='1254'> +1.1604463e+02 </wgt>
<wgt id='1255'> +1.1596967e+02 </wgt>
<wgt id='1256'> +1.1607377e+02 </wgt>
<wgt id='1257'> +1.1585790e+02 </wgt>
<wgt id='1258'> +1.1593290e+02 </wgt>
<wgt id='1259'> +1.1565734e+02 </wgt>
<wgt id='1260'> +1.1573598e+02 </wgt>
<wgt id='1261'> +1.1630719e+02 </wgt>
<wgt id='1262'> +1.1569042e+02 </wgt>
<wgt id='1263'> +1.1564686e+02 </wgt>
<wgt id='1264'> +1.1613091e+02 </wgt>
<wgt id='1265'> +1.1587216e+02 </wgt>
<wgt id='1266'> +1.1699783e+02 </wgt>
<wgt id='1267'> +1.1595922e+02 </wgt>
<wgt id='1268'> +1.1638679e+02 </wgt>
<wgt id='1269'> +1.1573192e+02 </wgt>
<wgt id='1270'> +1.1567228e+02 </wgt>
<wgt id='1271'> +1.1611013e+02 </wgt>
<wgt id='1272'> +1.1610281e+02 </wgt>
<wgt id='1273'> +1.1636815e+02 </wgt>
<wgt id='1274'> +1.1625511e+02 </wgt>
<wgt id='1275'> +1.1516211e+02 </wgt>
<wgt id='1276'> +1.1564004e+02 </wgt>
<wgt id='1277'> +1.1618935e+02 </wgt>
<wgt id='1278'> +1.1504507e+02 </wgt>
<wgt id='1279'> +1.1623427e+02 </wgt>
<wgt id='1280'> +1.1629779e+02 </wgt>
<wgt id='1281'> +1.1437771e+02 </wgt>
<wgt id='1282'> +1.1489155e+02 </wgt>
<wgt id='1283'> +1.1595180e+02 </wgt>
<wgt id='1284'> +1.1572208e+02 </wgt>
<wgt id='1285'> +1.1596647e+02 </wgt>
<wgt id='1286'> +1.1597781e+02 </wgt>
<wgt id='1287'> +1.1538667e+02 </wgt>
<wgt id='1288'> +1.1580487e+02 </wgt>
<wgt id='1289'> +1.1605621e+02 </wgt>
<wgt id='1290'> +1.1578523e+02 </wgt>
<wgt id='1291'> +1.1584201e+02 </wgt>
<wgt id='1292'> +1.1566988e+02 </wgt>
<wgt id='1293'> +1.1607350e+02 </wgt>
<wgt id='1294'> +1.1562207e+02 </wgt>
<wgt id='1295'> +1.1596825e+02 </wgt>
<wgt id='1296'> +1.1583338e+02 </wgt>
<wgt id='1297'> +1.1618070e+02 </wgt>
<wgt id='1298'> +1.1624425e+02 </wgt>
<wgt id='1299'> +1.1604078e+02 </wgt>
<wgt id='1300'> +1.1601425e+02 </wgt>
<wgt id='1301'> +1.1569051e+02 </wgt>
<wgt id='1302'> +1.1569321e+02 </wgt>
<wgt id='1303'> +1.1607444e+02 </wgt>
<wgt id='1304'> +1.1578660e+02 </wgt>
<wgt id='1305'> +1.1590522e+02 </wgt>
<wgt id='1306'> +1.1594204e+02 </wgt>
<wgt id='1307'> +1.1569970e+02 </wgt>
<wgt id='1308'> +1.1585700e+02 </wgt>
<wgt id='1309'> +1.1589548e+02 </wgt>
<wgt id='1310'> +1.1575037e+02 </wgt>
<wgt id='1311'> +1.1574503e+02 </wgt>
<wgt id='1312'> +1.1612592e+02 </wgt>
<wgt id='1313'> +1.1580865e+02 </wgt>
<wgt id='1314'> +1.1589585e+02 </wgt>
<wgt id='1315'> +1.1576776e+02 </wgt>
<wgt id='1316'> +1.1582080e+02 </wgt>
<wgt id='1317'> +1.1584504e+02 </wgt>
<wgt id='1318'> +1.1590711e+02 </wgt>
<wgt id='1319'> +1.1598827e+02 </wgt>
<wgt id='1320'> +1.1615550e+02 </wgt>
<wgt id='1321'> +1.1586425e+02 </wgt>
<wgt id='1322'> +1.1578959e+02 </wgt>
<wgt id='1323'> +1.1589517e+02 </wgt>
<wgt id='1324'> +1.1589530e+02 </wgt>
<wgt id='1325'> +1.1587107e+02 </wgt>
<wgt id='1326'> +1.1580337e+02 </wgt>
<wgt id='1327'> +1.1564473e+02 </wgt>
<wgt id='1328'> +1.1584549e+02 </wgt>
<wgt id='1329'> +1.1587633e+02 </wgt>
<wgt id='1330'> +1.1597389e+02 </wgt>
<wgt id='1331'> +1.1583499e+02 </wgt>
<wgt id='1332'> +1.1585674e+02 </wgt>
<wgt id='1333'> +1.1592898e+02 </wgt>
<wgt id='1334'> +1.1592673e+02 </wgt>
<wgt id='1335'> +1.1589076e+02 </wgt>
<wgt id='1336'> +1.1582927e+02 </wgt>
<wgt id='1337'> +1.1592295e+02 </wgt>
<wgt id='1338'> +1.1584892e+02 </wgt>
<wgt id='1339'> +1.1590793e+02 </wgt>
<wgt id='1340'> +1.1582576e+02 </wgt>
<wgt id='1341'> +1.1595973e+02 </wgt>
<wgt id='1342'> +1.1587802e+02 </wgt>
<wgt id='1343'> +1.1595415e+02 </wgt>
<wgt id='1344'> +1.1589531e+02 </wgt>
<wgt id='1345'> +1.1577718e+02 </wgt>
<wgt id='1346'> +1.1580638e+02 </wgt>
<wgt id='1347'> +1.1587550e+02 </wgt>
<wgt id='1348'> +1.1582258e+02 </wgt>
<wgt id='1349'> +1.1594899e+02 </wgt>
<wgt id='1350'> +1.1588553e+02 </wgt>
<wgt id='1351'> +1.1584084e+02 </wgt>
<wgt id='1352'> +1.1582914e+02 </wgt>
<wgt id='1353'> +1.0944564e+02 </wgt>
<wgt id='1354'> +1.2251640e+02 </wgt>
<wgt id='1355'> +8.6831746e+01 </wgt>
<wgt id='1356'> +9.2002226e+01 </wgt>
<wgt id='1357'> +9.7970248e+01 </wgt>
<wgt id='1358'> +1.0387181e+02 </wgt>
<wgt id='1359'> +1.1296384e+02 </wgt>
<wgt id='1360'> +1.1903358e+02 </wgt>
<wgt id='1361'> +1.2896954e+02 </wgt>
<wgt id='1362'> +1.3598909e+02 </wgt>
<wgt id='1363'> +1.1377286e+02 </wgt>
<wgt id='1364'> +1.1377857e+02 </wgt>
<wgt id='1365'> +1.1375466e+02 </wgt>
<wgt id='1366'> +1.1390359e+02 </wgt>
<wgt id='1367'> +1.1384723e+02 </wgt>
<wgt id='1368'> +1.1396111e+02 </wgt>
<wgt id='1369'> +1.1375299e+02 </wgt>
<wgt id='1370'> +1.1403696e+02 </wgt>
<wgt id='1371'> +1.1349109e+02 </wgt>
<wgt id='1372'> +1.1410153e+02 </wgt>
<wgt id='1373'> +1.1325635e+02 </wgt>
<wgt id='1374'> +1.1366814e+02 </wgt>
<wgt id='1375'> +1.1377088e+02 </wgt>
<wgt id='1376'> +1.1368441e+02 </wgt>
<wgt id='1377'> +1.1443343e+02 </wgt>
<wgt id='1378'> +1.1313015e+02 </wgt>
<wgt id='1379'> +1.1389012e+02 </wgt>
<wgt id='1380'> +1.1372944e+02 </wgt>
<wgt id='1381'> +1.1389941e+02 </wgt>
<wgt id='1382'> +1.1348680e+02 </wgt>
<wgt id='1383'> +1.1298085e+02 </wgt>
<wgt id='1384'> +1.1438622e+02 </wgt>
<wgt id='1385'> +1.1405295e+02 </wgt>
<wgt id='1386'> +1.1429915e+02 </wgt>
<wgt id='1387'> +1.1371410e+02 </wgt>
<wgt id='1388'> +1.1299783e+02 </wgt>
<wgt id='1389'> +1.1359664e+02 </wgt>
<wgt id='1390'> +1.1396476e+02 </wgt>
<wgt id='1391'> +1.1413968e+02 </wgt>
<wgt id='1392'> +1.1432864e+02 </wgt>
<wgt id='1393'> +1.1195970e+02 </wgt>
<wgt id='1394'> +1.1358470e+02 </wgt>
<wgt id='1395'> +1.1360730e+02 </wgt>
<wgt id='1396'> +1.1441269e+02 </wgt>
<wgt id='1397'> +1.1397788e+02 </wgt>
<wgt id='1398'> +1.1406769e+02 </wgt>
<wgt id='1399'> +1.1397236e+02 </wgt>
<wgt id='1400'> +1.1327047e+02 </wgt>
<wgt id='1401'> +1.1391811e+02 </wgt>
<wgt id='1402'> +1.1371281e+02 </wgt>
<wgt id='1403'> +1.1380265e+02 </wgt>
<wgt id='1404'> +1.1365035e+02 </wgt>
<wgt id='1405'> +1.1394802e+02 </wgt>
<wgt id='1406'> +1.1335113e+02 </wgt>
<wgt id='1407'> +1.1377999e+02 </wgt>
<wgt id='1408'> +1.1396039e+02 </wgt>
<wgt id='1409'> +1.1387113e+02 </wgt>
<wgt id='1410'> +1.1344521e+02 </wgt>
<wgt id='1411'> +1.1370891e+02 </wgt>
<wgt id='1412'> +1.1398847e+02 </wgt>
<wgt id='1413'> +1.1369957e+02 </wgt>
<wgt id='1414'> +1.1384440e+02 </wgt>
<wgt id='1415'> +1.1387513e+02 </wgt>
<wgt id='1416'> +1.1361961e+02 </wgt>
<wgt id='1417'> +1.1358026e+02 </wgt>
<wgt id='1418'> +1.1366292e+02 </wgt>
<wgt id='1419'> +1.1385218e+02 </wgt>
<wgt id='1420'> +1.1388373e+02 </wgt>
<wgt id='1421'> +1.1366704e+02 </wgt>
<wgt id='1422'> +1.1367659e+02 </wgt>
<wgt id='1423'> +1.1379138e+02 </wgt>
<wgt id='1424'> +1.1381079e+02 </wgt>
<wgt id='1425'> +1.1360369e+02 </wgt>
<wgt id='1426'> +1.1378132e+02 </wgt>
<wgt id='1427'> +1.1373440e+02 </wgt>
<wgt id='1428'> +1.1374530e+02 </wgt>
<wgt id='1429'> +1.1375989e+02 </wgt>
<wgt id='1430'> +1.1360376e+02 </wgt>
<wgt id='1431'> +1.1390624e+02 </wgt>
<wgt id='1432'> +1.1370562e+02 </wgt>
<wgt id='1433'> +1.1363608e+02 </wgt>
<wgt id='1434'> +1.1376818e+02 </wgt>
<wgt id='1435'> +1.1361875e+02 </wgt>
<wgt id='1436'> +1.1380616e+02 </wgt>
<wgt id='1437'> +1.1394486e+02 </wgt>
<wgt id='1438'> +1.1378984e+02 </wgt>
<wgt id='1439'> +1.1385021e+02 </wgt>
<wgt id='1440'> +1.1367342e+02 </wgt>
<wgt id='1441'> +1.1384743e+02 </wgt>
<wgt id='1442'> +1.1376241e+02 </wgt>
<wgt id='1443'> +1.1381959e+02 </wgt>
<wgt id='1444'> +1.1395195e+02 </wgt>
<wgt id='1445'> +1.1376497e+02 </wgt>
<wgt id='1446'> +1.1384928e+02 </wgt>
<wgt id='1447'> +1.1379335e+02 </wgt>
<wgt id='1448'> +1.1384309e+02 </wgt>
<wgt id='1449'> +1.1376112e+02 </wgt>
<wgt id='1450'> +1.1378543e+02 </wgt>
<wgt id='1451'> +1.1376040e+02 </wgt>
<wgt id='1452'> +1.1384386e+02 </wgt>
<wgt id='1453'> +1.1376860e+02 </wgt>
<wgt id='1454'> +1.1384692e+02 </wgt>
<wgt id='1455'> +1.1380096e+02 </wgt>
<wgt id='1456'> +1.1378803e+02 </wgt>
<wgt id='1457'> +1.1372424e+02 </wgt>
<wgt id='1458'> +1.1379270e+02 </wgt>
<wgt id='1459'> +1.1375944e+02 </wgt>
<wgt id='1460'> +1.1374639e+02 </wgt>
<wgt id='1461'> +1.1376337e+02 </wgt>
<wgt id='1462'> +1.1380850e+02 </wgt>
<wgt id='1463'> +1.1387387e+02 </wgt>
<wgt id='1464'> +1.0777594e+02 </wgt>
<wgt id='1465'> +1.2028067e+02 </wgt>
<wgt id='1466'> +1.1367965e+02 </wgt>
<wgt id='1467'> +1.1406841e+02 </wgt>
<wgt id='1468'> +1.1317636e+02 </wgt>
<wgt id='1469'> +1.1391213e+02 </wgt>
<wgt id='1470'> +1.1380198e+02 </wgt>
<wgt id='1471'> +1.1385841e+02 </wgt>
<wgt id='1472'> +1.1395262e+02 </wgt>
<wgt id='1473'> +1.1408020e+02 </wgt>
<wgt id='1474'> +1.1274097e+02 </wgt>
<wgt id='1475'> +1.1421915e+02 </wgt>
<wgt id='1476'> +1.1343815e+02 </wgt>
<wgt id='1477'> +1.1404405e+02 </wgt>
<wgt id='1478'> +1.1243687e+02 </wgt>
<wgt id='1479'> +1.1253795e+02 </wgt>
<wgt id='1480'> +1.1359996e+02 </wgt>
<wgt id='1481'> +1.1370706e+02 </wgt>
<wgt id='1482'> +1.1319002e+02 </wgt>
<wgt id='1483'> +1.1360530e+02 </wgt>
<wgt id='1484'> +1.1379333e+02 </wgt>
<wgt id='1485'> +1.1388129e+02 </wgt>
<wgt id='1486'> +1.1346160e+02 </wgt>
<wgt id='1487'> +1.1296088e+02 </wgt>
<wgt id='1488'> +1.1409408e+02 </wgt>
<wgt id='1489'> +1.1303807e+02 </wgt>
<wgt id='1490'> +1.1434979e+02 </wgt>
<wgt id='1491'> +1.1277768e+02 </wgt>
<wgt id='1492'> +1.1443779e+02 </wgt>
<wgt id='1493'> +1.1383256e+02 </wgt>
<wgt id='1494'> +1.1338616e+02 </wgt>
<wgt id='1495'> +1.1236540e+02 </wgt>
<wgt id='1496'> +1.1448400e+02 </wgt>
<wgt id='1497'> +1.1380833e+02 </wgt>
<wgt id='1498'> +1.1343108e+02 </wgt>
<wgt id='1499'> +1.1461257e+02 </wgt>
<wgt id='1500'> +1.1279063e+02 </wgt>
<wgt id='1501'> +1.1577223e+02 </wgt>
<wgt id='1502'> +1.1209413e+02 </wgt>
<wgt id='1503'> +1.1572910e+02 </wgt>
<wgt id='1504'> +1.1133451e+02 </wgt>
<wgt id='1505'> +1.1606989e+02 </wgt>
<wgt id='1506'> +1.1126099e+02 </wgt>
<wgt id='1507'> +1.1322955e+02 </wgt>
<wgt id='1508'> +1.1399886e+02 </wgt>
<wgt id='1509'> +1.1330381e+02 </wgt>
<wgt id='1510'> +1.1317633e+02 </wgt>
<wgt id='1511'> +1.1430848e+02 </wgt>
<wgt id='1512'> +1.1385535e+02 </wgt>
<wgt id='1513'> +1.1129378e+02 </wgt>
<wgt id='1514'> +1.1608287e+02 </wgt>
<wgt id='1515'> +1.1426952e+02 </wgt>
<wgt id='1516'> +1.1289823e+02 </wgt>
<wgt id='1517'> +1.1409974e+02 </wgt>
<wgt id='1518'> +1.1403834e+02 </wgt>
<wgt id='1519'> +1.1217945e+02 </wgt>
<wgt id='1520'> +1.1179222e+02 </wgt>
<wgt id='1521'> +1.1153100e+02 </wgt>
<wgt id='1522'> +1.1637602e+02 </wgt>
<wgt id='1523'> +1.0768086e+02 </wgt>
<wgt id='1524'> +1.1990199e+02 </wgt>
<wgt id='1525'> +1.1077618e+02 </wgt>
<wgt id='1526'> +1.1116812e+02 </wgt>
<wgt id='1527'> +1.1111123e+02 </wgt>
<wgt id='1528'> +1.1106077e+02 </wgt>
<wgt id='1529'> +1.1110796e+02 </wgt>
<wgt id='1530'> +1.0987593e+02 </wgt>
<wgt id='1531'> +1.1128087e+02 </wgt>
<wgt id='1532'> +1.1049417e+02 </wgt>
<wgt id='1533'> +1.1254521e+02 </wgt>
<wgt id='1534'> +1.0934917e+02 </wgt>
<wgt id='1535'> +1.1234014e+02 </wgt>
<wgt id='1536'> +1.1220961e+02 </wgt>
<wgt id='1537'> +1.0986908e+02 </wgt>
<wgt id='1538'> +1.0909880e+02 </wgt>
<wgt id='1539'> +1.1131356e+02 </wgt>
<wgt id='1540'> +1.1213797e+02 </wgt>
<wgt id='1541'> +1.0877447e+02 </wgt>
<wgt id='1542'> +1.1306513e+02 </wgt>
<wgt id='1543'> +1.0815900e+02 </wgt>
<wgt id='1544'> +1.1205562e+02 </wgt>
<wgt id='1545'> +1.0933281e+02 </wgt>
<wgt id='1546'> +1.1078419e+02 </wgt>
<wgt id='1547'> +1.1044016e+02 </wgt>
<wgt id='1548'> +1.1045424e+02 </wgt>
<wgt id='1549'> +1.1110625e+02 </wgt>
<wgt id='1550'> +1.1128105e+02 </wgt>
<wgt id='1551'> +1.1041609e+02 </wgt>
<wgt id='1552'> +1.1141138e+02 </wgt>
<wgt id='1553'> +1.0986644e+02 </wgt>
<wgt id='1554'> +1.1000581e+02 </wgt>
<wgt id='1555'> +1.1103795e+02 </wgt>
<wgt id='1556'> +1.1059517e+02 </wgt>
<wgt id='1557'> +1.1099898e+02 </wgt>
<wgt id='1558'> +1.1139205e+02 </wgt>
<wgt id='1559'> +1.0940047e+02 </wgt>
<wgt id='1560'> +1.1006203e+02 </wgt>
<wgt id='1561'> +1.1154305e+02 </wgt>
<wgt id='1562'> +1.1096296e+02 </wgt>
<wgt id='1563'> +1.1014689e+02 </wgt>
<wgt id='1564'> +1.0943353e+02 </wgt>
<wgt id='1565'> +1.1128172e+02 </wgt>
<wgt id='1566'> +1.1194556e+02 </wgt>
<wgt id='1567'> +1.0961134e+02 </wgt>
<wgt id='1568'> +1.1098450e+02 </wgt>
<wgt id='1569'> +1.1037834e+02 </wgt>
<wgt id='1570'> +1.1062248e+02 </wgt>
<wgt id='1571'> +1.1035724e+02 </wgt>
<wgt id='1572'> +1.1040988e+02 </wgt>
<wgt id='1573'> +1.1087005e+02 </wgt>
<wgt id='1574'> +1.1065440e+02 </wgt>
<wgt id='1575'> +1.1068963e+02 </wgt>
<wgt id='1576'> +1.1062267e+02 </wgt>
<wgt id='1577'> +1.1123008e+02 </wgt>
<wgt id='1578'> +1.1029200e+02 </wgt>
<wgt id='1579'> +1.1029563e+02 </wgt>
<wgt id='1580'> +1.0922698e+02 </wgt>
<wgt id='1581'> +1.1267823e+02 </wgt>
<wgt id='1582'> +1.0497634e+02 </wgt>
<wgt id='1583'> +1.1662302e+02 </wgt>
<wgt id='1584'> +9.6690091e+01 </wgt>
<wgt id='1585'> +1.0586218e+02 </wgt>
<wgt id='1586'> +1.0575523e+02 </wgt>
<wgt id='1587'> +1.0597888e+02 </wgt>
<wgt id='1588'> +1.0545751e+02 </wgt>
<wgt id='1589'> +1.0613629e+02 </wgt>
<wgt id='1590'> +1.0582881e+02 </wgt>
<wgt id='1591'> +1.0589851e+02 </wgt>
<wgt id='1592'> +1.0617112e+02 </wgt>
<wgt id='1593'> +1.0551682e+02 </wgt>
<wgt id='1594'> +1.0544433e+02 </wgt>
<wgt id='1595'> +1.0626867e+02 </wgt>
<wgt id='1596'> +1.0577080e+02 </wgt>
<wgt id='1597'> +1.0606345e+02 </wgt>
<wgt id='1598'> +1.0559162e+02 </wgt>
<wgt id='1599'> +1.0634498e+02 </wgt>
<wgt id='1600'> +1.0592317e+02 </wgt>
<wgt id='1601'> +1.0582899e+02 </wgt>
<wgt id='1602'> +1.0671433e+02 </wgt>
<wgt id='1603'> +1.0486724e+02 </wgt>
<wgt id='1604'> +1.0577691e+02 </wgt>
<wgt id='1605'> +1.0593420e+02 </wgt>
<wgt id='1606'> +1.0635330e+02 </wgt>
<wgt id='1607'> +1.0523108e+02 </wgt>
<wgt id='1608'> +1.0726773e+02 </wgt>
<wgt id='1609'> +1.0492679e+02 </wgt>
<wgt id='1610'> +1.0578637e+02 </wgt>
<wgt id='1611'> +1.0583564e+02 </wgt>
<wgt id='1612'> +1.0612852e+02 </wgt>
<wgt id='1613'> +1.0577015e+02 </wgt>
<wgt id='1614'> +1.0646519e+02 </wgt>
<wgt id='1615'> +1.0515037e+02 </wgt>
<wgt id='1616'> +1.0683336e+02 </wgt>
<wgt id='1617'> +1.0470596e+02 </wgt>
<wgt id='1618'> +1.0546173e+02 </wgt>
<wgt id='1619'> +1.0622435e+02 </wgt>
<wgt id='1620'> +1.0567355e+02 </wgt>
<wgt id='1621'> +1.0586508e+02 </wgt>
<wgt id='1622'> +1.0555840e+02 </wgt>
<wgt id='1623'> +1.0616269e+02 </wgt>
<wgt id='1624'> +1.0586608e+02 </wgt>
<wgt id='1625'> +1.0581219e+02 </wgt>
<wgt id='1626'> +1.0442759e+02 </wgt>
<wgt id='1627'> +1.0693351e+02 </wgt>
<wgt id='1628'> +1.0639075e+02 </wgt>
<wgt id='1629'> +1.0514358e+02 </wgt>
<wgt id='1630'> +1.0538105e+02 </wgt>
<wgt id='1631'> +1.0700839e+02 </wgt>
<wgt id='1632'> +1.0591375e+02 </wgt>
<wgt id='1633'> +1.0532376e+02 </wgt>
<wgt id='1634'> +1.0569371e+02 </wgt>
<wgt id='1635'> +1.0614387e+02 </wgt>
<wgt id='1636'> +1.1195470e+02 </wgt>
<wgt id='1637'> +1.1180383e+02 </wgt>
<wgt id='1638'> +1.1214419e+02 </wgt>
<wgt id='1639'> +1.1212111e+02 </wgt>
<wgt id='1640'> +1.1178626e+02 </wgt>
<wgt id='1641'> +1.1139191e+02 </wgt>
<wgt id='1642'> +1.1217971e+02 </wgt>
<wgt id='1643'> +1.1220420e+02 </wgt>
<wgt id='1644'> +1.1169387e+02 </wgt>
<wgt id='1645'> +1.1167845e+02 </wgt>
<wgt id='1646'> +1.1221813e+02 </wgt>
<wgt id='1647'> +1.1252368e+02 </wgt>
<wgt id='1648'> +1.1170582e+02 </wgt>
<wgt id='1649'> +1.1189246e+02 </wgt>
<wgt id='1650'> +1.1202718e+02 </wgt>
<wgt id='1651'> +1.1166726e+02 </wgt>
<wgt id='1652'> +1.1226226e+02 </wgt>
<wgt id='1653'> +1.1301767e+02 </wgt>
<wgt id='1654'> +1.1135120e+02 </wgt>
<wgt id='1655'> +1.1223806e+02 </wgt>
<wgt id='1656'> +1.1155601e+02 </wgt>
<wgt id='1657'> +1.1176204e+02 </wgt>
<wgt id='1658'> +1.1208539e+02 </wgt>
<wgt id='1659'> +1.1100733e+02 </wgt>
<wgt id='1660'> +1.1286124e+02 </wgt>
<wgt id='1661'> +1.1141187e+02 </wgt>
<wgt id='1662'> +1.1327600e+02 </wgt>
<wgt id='1663'> +1.1198944e+02 </wgt>
<wgt id='1664'> +1.1201765e+02 </wgt>
<wgt id='1665'> +1.1143017e+02 </wgt>
<wgt id='1666'> +1.1335284e+02 </wgt>
<wgt id='1667'> +1.1233917e+02 </wgt>
<wgt id='1668'> +1.1098544e+02 </wgt>
<wgt id='1669'> +1.1168166e+02 </wgt>
<wgt id='1670'> +1.1225130e+02 </wgt>
<wgt id='1671'> +1.1239354e+02 </wgt>
<wgt id='1672'> +1.1156714e+02 </wgt>
<wgt id='1673'> +1.1202203e+02 </wgt>
<wgt id='1674'> +1.1187267e+02 </wgt>
<wgt id='1675'> +1.1199826e+02 </wgt>
<wgt id='1676'> +1.1186535e+02 </wgt>
<wgt id='1677'> +1.1290649e+02 </wgt>
<wgt id='1678'> +1.0965224e+02 </wgt>
<wgt id='1679'> +1.1218833e+02 </wgt>
<wgt id='1680'> +1.1112354e+02 </wgt>
<wgt id='1681'> +1.1119390e+02 </wgt>
<wgt id='1682'> +1.1228266e+02 </wgt>
<wgt id='1683'> +1.1292811e+02 </wgt>
<wgt id='1684'> +1.1149100e+02 </wgt>
<wgt id='1685'> +1.1189964e+02 </wgt>
<wgt id='1686'> +1.1170543e+02 </wgt>
<wgt id='1687'> +1.3365798e+02 </wgt>
<wgt id='1688'> +1.1699141e+02 </wgt>
<wgt id='1689'> +1.1695626e+02 </wgt>
<wgt id='1690'> +1.1685871e+02 </wgt>
<wgt id='1691'> +1.1718845e+02 </wgt>
<wgt id='1692'> +1.1699256e+02 </wgt>
<wgt id='1693'> +1.1705962e+02 </wgt>
<wgt id='1694'> +1.1681194e+02 </wgt>
<wgt id='1695'> +1.1717322e+02 </wgt>
<wgt id='1696'> +1.1638407e+02 </wgt>
<wgt id='1697'> +1.1678530e+02 </wgt>
<wgt id='1698'> +1.1703119e+02 </wgt>
<wgt id='1699'> +1.1669035e+02 </wgt>
<wgt id='1700'> +1.1717803e+02 </wgt>
<wgt id='1701'> +1.1702826e+02 </wgt>
<wgt id='1702'> +1.1678802e+02 </wgt>
<wgt id='1703'> +1.1704790e+02 </wgt>
<wgt id='1704'> +1.1698102e+02 </wgt>
<wgt id='1705'> +1.1667525e+02 </wgt>
<wgt id='1706'> +1.1665059e+02 </wgt>
<wgt id='1707'> +1.1697122e+02 </wgt>
<wgt id='1708'> +1.1645370e+02 </wgt>
<wgt id='1709'> +1.1671909e+02 </wgt>
<wgt id='1710'> +1.1691185e+02 </wgt>
<wgt id='1711'> +1.1700850e+02 </wgt>
<wgt id='1712'> +1.1725993e+02 </wgt>
<wgt id='1713'> +1.1704662e+02 </wgt>
<wgt id='1714'> +1.1653449e+02 </wgt>
<wgt id='1715'> +1.1671081e+02 </wgt>
<wgt id='1716'> +1.1713972e+02 </wgt>
<wgt id='1717'> +1.1631148e+02 </wgt>
<wgt id='1718'> +1.0836089e+02 </wgt>
<wgt id='1719'> +1.0793587e+02 </wgt>
<wgt id='1720'> +1.0760836e+02 </wgt>
<wgt id='1721'> +1.0932913e+02 </wgt>
<wgt id='1722'> +1.0800339e+02 </wgt>
<wgt id='1723'> +1.0861425e+02 </wgt>
<wgt id='1724'> +1.0738947e+02 </wgt>
<wgt id='1725'> +1.0888778e+02 </wgt>
<wgt id='1726'> +1.0845717e+02 </wgt>
<wgt id='1727'> +1.0797051e+02 </wgt>
<wgt id='1728'> +1.0788800e+02 </wgt>
<wgt id='1729'> +1.0739867e+02 </wgt>
<wgt id='1730'> +1.0799786e+02 </wgt>
<wgt id='1731'> +1.0941326e+02 </wgt>
<wgt id='1732'> +1.0795281e+02 </wgt>
<wgt id='1733'> +1.0815800e+02 </wgt>
<wgt id='1734'> +1.0769244e+02 </wgt>
<wgt id='1735'> +1.0825655e+02 </wgt>
<wgt id='1736'> +1.0962885e+02 </wgt>
<wgt id='1737'> +1.0787213e+02 </wgt>
<wgt id='1738'> +1.0841057e+02 </wgt>
<wgt id='1739'> +1.0855773e+02 </wgt>
<wgt id='1740'> +1.0758215e+02 </wgt>
<wgt id='1741'> +1.0917676e+02 </wgt>
<wgt id='1742'> +1.0826310e+02 </wgt>
<wgt id='1743'> +1.0912339e+02 </wgt>
<wgt id='1744'> +1.0854043e+02 </wgt>
<wgt id='1745'> +1.0799321e+02 </wgt>
<wgt id='1746'> +1.0898301e+02 </wgt>
<wgt id='1747'> +1.0837140e+02 </wgt>
<wgt id='1748'> +1.0825541e+02 </wgt>
<wgt id='1749'> +1.0838235e+02 </wgt>
<wgt id='1750'> +1.0784645e+02 </wgt>
<wgt id='1751'> +1.0823418e+02 </wgt>
<wgt id='1752'> +1.0874724e+02 </wgt>
<wgt id='1753'> +1.0884275e+02 </wgt>
<wgt id='1754'> +1.0797888e+02 </wgt>
<wgt id='1755'> +1.0818353e+02 </wgt>
<wgt id='1756'> +1.0833608e+02 </wgt>
<wgt id='1757'> +1.0860490e+02 </wgt>
<wgt id='1758'> +1.0843070e+02 </wgt>
<wgt id='1759'> +1.0857325e+02 </wgt>
<wgt id='1760'> +1.0829530e+02 </wgt>
<wgt id='1761'> +1.0818754e+02 </wgt>
<wgt id='1762'> +1.0857275e+02 </wgt>
<wgt id='1763'> +1.0861326e+02 </wgt>
<wgt id='1764'> +1.0850828e+02 </wgt>
<wgt id='1765'> +1.0833384e+02 </wgt>
<wgt id='1766'> +1.0824212e+02 </wgt>
<wgt id='1767'> +1.0849933e+02 </wgt>
<wgt id='1768'> +1.0836178e+02 </wgt>
<wgt id='1769'> +1.0827411e+02 </wgt>
<wgt id='1770'> +1.0838542e+02 </wgt>
<wgt id='1771'> +1.0812930e+02 </wgt>
<wgt id='1772'> +1.0831606e+02 </wgt>
<wgt id='1773'> +1.0837828e+02 </wgt>
<wgt id='1774'> +1.0838870e+02 </wgt>
<wgt id='1775'> +1.0824420e+02 </wgt>
<wgt id='1776'> +1.0844320e+02 </wgt>
<wgt id='1777'> +1.0833274e+02 </wgt>
<wgt id='1778'> +1.0836709e+02 </wgt>
<wgt id='1779'> +1.0841173e+02 </wgt>
<wgt id='1780'> +1.0833143e+02 </wgt>
<wgt id='1781'> +1.0832370e+02 </wgt>
<wgt id='1782'> +1.0828760e+02 </wgt>
<wgt id='1783'> +1.0835102e+02 </wgt>
<wgt id='1784'> +1.0825473e+02 </wgt>
<wgt id='1785'> +1.0820665e+02 </wgt>
<wgt id='1786'> +1.0840433e+02 </wgt>
<wgt id='1787'> +1.0837535e+02 </wgt>
<wgt id='1788'> +1.0847308e+02 </wgt>
<wgt id='1789'> +1.0837548e+02 </wgt>
<wgt id='1790'> +1.0823988e+02 </wgt>
<wgt id='1791'> +1.0829032e+02 </wgt>
<wgt id='1792'> +1.0839223e+02 </wgt>
<wgt id='1793'> +1.0833183e+02 </wgt>
<wgt id='1794'> +1.0830830e+02 </wgt>
<wgt id='1795'> +1.0834202e+02 </wgt>
<wgt id='1796'> +1.0835779e+02 </wgt>
<wgt id='1797'> +1.0838156e+02 </wgt>
<wgt id='1798'> +1.0836661e+02 </wgt>
<wgt id='1799'> +1.0837614e+02 </wgt>
<wgt id='1800'> +1.0835552e+02 </wgt>
<wgt id='1801'> +1.0835008e+02 </wgt>
<wgt id='1802'> +1.0840414e+02 </wgt>
<wgt id='1803'> +1.0836429e+02 </wgt>
<wgt id='1804'> +1.0839351e+02 </wgt>
<wgt id='1805'> +1.0838186e+02 </wgt>
<wgt id='1806'> +1.0833143e+02 </wgt>
<wgt id='1807'> +1.0830175e+02 </wgt>
<wgt id='1808'> +1.0835672e+02 </wgt>
<wgt id='1809'> +1.0829416e+02 </wgt>
<wgt id='1810'> +1.0834883e+02 </wgt>
<wgt id='1811'> +1.0830256e+02 </wgt>
<wgt id='1812'> +1.0834328e+02 </wgt>
<wgt id='1813'> +1.0836284e+02 </wgt>
<wgt id='1814'> +1.0834985e+02 </wgt>
<wgt id='1815'> +1.0837439e+02 </wgt>
<wgt id='1816'> +1.0834343e+02 </wgt>
<wgt id='1817'> +1.0837380e+02 </wgt>
<wgt id='1818'> +1.0836672e+02 </wgt>
<wgt id='1819'> +1.0375258e+02 </wgt>
<wgt id='1820'> +1.1287115e+02 </wgt>
<wgt id='1821'> +1.1255515e+02 </wgt>
<wgt id='1822'> +1.1268169e+02 </wgt>
<wgt id='1823'> +1.1219360e+02 </wgt>
<wgt id='1824'> +1.1282129e+02 </wgt>
<wgt id='1825'> +1.1320797e+02 </wgt>
<wgt id='1826'> +1.1332896e+02 </wgt>
<wgt id='1827'> +1.1304895e+02 </wgt>
<wgt id='1828'> +1.1277864e+02 </wgt>
<wgt id='1829'> +1.1258500e+02 </wgt>
<wgt id='1830'> +1.1274102e+02 </wgt>
<wgt id='1831'> +1.1251486e+02 </wgt>
<wgt id='1832'> +1.1357492e+02 </wgt>
<wgt id='1833'> +1.1251622e+02 </wgt>
<wgt id='1834'> +1.1296543e+02 </wgt>
<wgt id='1835'> +1.1199630e+02 </wgt>
<wgt id='1836'> +1.1242782e+02 </wgt>
<wgt id='1837'> +1.1248280e+02 </wgt>
<wgt id='1838'> +1.1247294e+02 </wgt>
<wgt id='1839'> +1.1303433e+02 </wgt>
<wgt id='1840'> +1.1132393e+02 </wgt>
<wgt id='1841'> +1.1270006e+02 </wgt>
<wgt id='1842'> +1.1299695e+02 </wgt>
<wgt id='1843'> +1.1187450e+02 </wgt>
<wgt id='1844'> +1.1322810e+02 </wgt>
<wgt id='1845'> +1.1333468e+02 </wgt>
<wgt id='1846'> +1.1238311e+02 </wgt>
<wgt id='1847'> +1.1245670e+02 </wgt>
<wgt id='1848'> +1.1277825e+02 </wgt>
<wgt id='1849'> +1.1249988e+02 </wgt>
<wgt id='1850'> +1.1245832e+02 </wgt>
<wgt id='1851'> +1.1248039e+02 </wgt>
<wgt id='1852'> +1.1319812e+02 </wgt>
<wgt id='1853'> +1.1280889e+02 </wgt>
<wgt id='1854'> +1.1296643e+02 </wgt>
<wgt id='1855'> +1.1295554e+02 </wgt>
<wgt id='1856'> +1.1212335e+02 </wgt>
<wgt id='1857'> +1.1330810e+02 </wgt>
<wgt id='1858'> +1.1255765e+02 </wgt>
<wgt id='1859'> +1.1250448e+02 </wgt>
<wgt id='1860'> +1.1251633e+02 </wgt>
<wgt id='1861'> +1.1215538e+02 </wgt>
<wgt id='1862'> +1.1238333e+02 </wgt>
<wgt id='1863'> +1.1276245e+02 </wgt>
<wgt id='1864'> +1.1230196e+02 </wgt>
<wgt id='1865'> +1.1276481e+02 </wgt>
<wgt id='1866'> +1.1236858e+02 </wgt>
<wgt id='1867'> +1.1238163e+02 </wgt>
<wgt id='1868'> +1.1237379e+02 </wgt>
<wgt id='1869'> +1.1266844e+02 </wgt>
<wgt id='1870'> +1.1240213e+02 </wgt>
<wgt id='1871'> +1.1250819e+02 </wgt>
<wgt id='1872'> +1.1259411e+02 </wgt>
<wgt id='1873'> +1.1267974e+02 </wgt>
<wgt id='1874'> +1.1237785e+02 </wgt>
<wgt id='1875'> +1.1248006e+02 </wgt>
<wgt id='1876'> +1.1244738e+02 </wgt>
<wgt id='1877'> +1.1259360e+02 </wgt>
<wgt id='1878'> +1.1249123e+02 </wgt>
<wgt id='1879'> +1.1236825e+02 </wgt>
<wgt id='1880'> +1.1256659e+02 </wgt>
<wgt id='1881'> +1.1247680e+02 </wgt>
<wgt id='1882'> +1.1253804e+02 </wgt>
<wgt id='1883'> +1.1272108e+02 </wgt>
<wgt id='1884'> +1.1250449e+02 </wgt>
<wgt id='1885'> +1.1249136e+02 </wgt>
<wgt id='1886'> +1.1259833e+02 </wgt>
<wgt id='1887'> +1.1263007e+02 </wgt>
<wgt id='1888'> +1.1260220e+02 </wgt>
<wgt id='1889'> +1.1244865e+02 </wgt>
<wgt id='1890'> +1.1262701e+02 </wgt>
<wgt id='1891'> +1.1262645e+02 </wgt>
<wgt id='1892'> +1.1259691e+02 </wgt>
<wgt id='1893'> +1.1264916e+02 </wgt>
<wgt id='1894'> +1.1251521e+02 </wgt>
<wgt id='1895'> +1.1255598e+02 </wgt>
<wgt id='1896'> +1.1252632e+02 </wgt>
<wgt id='1897'> +1.1257975e+02 </wgt>
<wgt id='1898'> +1.1261274e+02 </wgt>
<wgt id='1899'> +1.1255486e+02 </wgt>
<wgt id='1900'> +1.1259203e+02 </wgt>
<wgt id='1901'> +1.1258962e+02 </wgt>
<wgt id='1902'> +1.1256431e+02 </wgt>
<wgt id='1903'> +1.1256758e+02 </wgt>
<wgt id='1904'> +1.1251178e+02 </wgt>
<wgt id='1905'> +1.1248409e+02 </wgt>
<wgt id='1906'> +1.1250845e+02 </wgt>
<wgt id='1907'> +1.1252280e+02 </wgt>
<wgt id='1908'> +1.1251004e+02 </wgt>
<wgt id='1909'> +1.1254601e+02 </wgt>
<wgt id='1910'> +1.1254822e+02 </wgt>
<wgt id='1911'> +1.1255695e+02 </wgt>
<wgt id='1912'> +1.1255702e+02 </wgt>
<wgt id='1913'> +1.1254898e+02 </wgt>
<wgt id='1914'> +1.1255075e+02 </wgt>
<wgt id='1915'> +1.1248658e+02 </wgt>
<wgt id='1916'> +1.1257488e+02 </wgt>
<wgt id='1917'> +1.1256571e+02 </wgt>
<wgt id='1918'> +1.1254325e+02 </wgt>
<wgt id='1919'> +1.1254928e+02 </wgt>
<wgt id='1920'> +1.1253110e+02 </wgt>
<wgt id='1921'> +1.1255321e+02 </wgt>
<wgt id='1922'> +1.0776005e+02 </wgt>
<wgt id='1923'> +1.1731175e+02 </wgt>
<wgt id='1924'> +1.0840993e+02 </wgt>
<wgt id='1925'> +1.0745437e+02 </wgt>
<wgt id='1926'> +1.0676376e+02 </wgt>
<wgt id='1927'> +1.0832309e+02 </wgt>
<wgt id='1928'> +1.0988613e+02 </wgt>
<wgt id='1929'> +1.0846017e+02 </wgt>
<wgt id='1930'> +1.0830125e+02 </wgt>
<wgt id='1931'> +1.0838919e+02 </wgt>
<wgt id='1932'> +1.0873006e+02 </wgt>
<wgt id='1933'> +1.0866919e+02 </wgt>
<wgt id='1934'> +1.0851052e+02 </wgt>
<wgt id='1935'> +1.0783244e+02 </wgt>
<wgt id='1936'> +1.0949248e+02 </wgt>
<wgt id='1937'> +1.0838702e+02 </wgt>
<wgt id='1938'> +1.0793283e+02 </wgt>
<wgt id='1939'> +1.0871535e+02 </wgt>
<wgt id='1940'> +1.0852040e+02 </wgt>
<wgt id='1941'> +1.0804702e+02 </wgt>
<wgt id='1942'> +1.0840492e+02 </wgt>
<wgt id='1943'> +1.0878837e+02 </wgt>
<wgt id='1944'> +1.0942108e+02 </wgt>
<wgt id='1945'> +1.0799617e+02 </wgt>
<wgt id='1946'> +1.0807619e+02 </wgt>
<wgt id='1947'> +1.0852248e+02 </wgt>
<wgt id='1948'> +1.0788211e+02 </wgt>
<wgt id='1949'> +1.0851762e+02 </wgt>
<wgt id='1950'> +1.0821383e+02 </wgt>
<wgt id='1951'> +1.0852161e+02 </wgt>
<wgt id='1952'> +1.0828367e+02 </wgt>
<wgt id='1953'> +1.0823749e+02 </wgt>
<wgt id='1954'> +1.0864668e+02 </wgt>
<wgt id='1955'> +1.0375258e+02 </wgt>
<wgt id='1956'> +1.1287115e+02 </wgt>
<wgt id='1957'> +1.1255656e+02 </wgt>
<wgt id='1958'> +1.1261100e+02 </wgt>
<wgt id='1959'> +1.1305858e+02 </wgt>
<wgt id='1960'> +1.1249113e+02 </wgt>
<wgt id='1961'> +1.1094246e+02 </wgt>
<wgt id='1962'> +1.1159799e+02 </wgt>
<wgt id='1963'> +1.1257050e+02 </wgt>
<wgt id='1964'> +1.1246236e+02 </wgt>
<wgt id='1965'> +1.1225095e+02 </wgt>
<wgt id='1966'> +1.1179181e+02 </wgt>
<wgt id='1967'> +1.1229492e+02 </wgt>
<wgt id='1968'> +1.1322155e+02 </wgt>
<wgt id='1969'> +1.1263215e+02 </wgt>
<wgt id='1970'> +1.1254121e+02 </wgt>
<wgt id='1971'> +1.1244652e+02 </wgt>
<wgt id='1972'> +1.1232889e+02 </wgt>
<wgt id='1973'> +1.1234749e+02 </wgt>
<wgt id='1974'> +1.1177929e+02 </wgt>
<wgt id='1975'> +1.1256945e+02 </wgt>
<wgt id='1976'> +1.1273800e+02 </wgt>
<wgt id='1977'> +1.1194496e+02 </wgt>
<wgt id='1978'> +1.1245030e+02 </wgt>
<wgt id='1979'> +1.1286455e+02 </wgt>
<wgt id='1980'> +1.1253481e+02 </wgt>
<wgt id='1981'> +1.1271211e+02 </wgt>
<wgt id='1982'> +1.1263655e+02 </wgt>
<wgt id='1983'> +1.1264638e+02 </wgt>
<wgt id='1984'> +1.1287837e+02 </wgt>
<wgt id='1985'> +1.1292924e+02 </wgt>
<wgt id='1986'> +1.1255069e+02 </wgt>
<wgt id='1987'> +1.1392487e+02 </wgt>
<wgt id='1988'> +1.0776005e+02 </wgt>
<wgt id='1989'> +1.1731175e+02 </wgt>
<wgt id='1990'> +1.2249364e+02 </wgt>
<wgt id='1991'> +1.2265983e+02 </wgt>
<wgt id='1992'> +1.2232846e+02 </wgt>
<wgt id='1993'> +1.2229548e+02 </wgt>
<wgt id='1994'> +1.2269171e+02 </wgt>
<wgt id='1995'> +1.2235651e+02 </wgt>
<wgt id='1996'> +1.2262975e+02 </wgt>
<wgt id='1997'> +1.2236378e+02 </wgt>
<wgt id='1998'> +1.2261292e+02 </wgt>
<wgt id='1999'> +1.2335663e+02 </wgt>
<wgt id='2000'> +1.2163101e+02 </wgt>
<wgt id='2001'> +1.2279575e+02 </wgt>
<wgt id='2002'> +1.2219250e+02 </wgt>
<wgt id='2003'> +1.2217459e+02 </wgt>
<wgt id='2004'> +1.2280837e+02 </wgt>
<wgt id='2005'> +1.2207960e+02 </wgt>
<wgt id='2006'> +1.2283890e+02 </wgt>
<wgt id='2007'> +1.2207222e+02 </wgt>
<wgt id='2008'> +1.2287116e+02 </wgt>
<wgt id='2009'> +1.2212464e+02 </wgt>
<wgt id='2010'> +1.2286569e+02 </wgt>
<wgt id='2011'> +1.2283180e+02 </wgt>
<wgt id='2012'> +1.2214230e+02 </wgt>
<wgt id='2013'> +1.2131442e+02 </wgt>
<wgt id='2014'> +1.2339918e+02 </wgt>
<wgt id='2015'> +1.2289422e+02 </wgt>
<wgt id='2016'> +1.2203447e+02 </wgt>
<wgt id='2017'> +1.2160222e+02 </wgt>
<wgt id='2018'> +1.2312283e+02 </wgt>
<wgt id='2019'> +1.2249364e+02 </wgt>
<wgt id='2020'> +1.2343300e+02 </wgt>
<wgt id='2021'> +1.2129184e+02 </wgt>
<wgt id='2022'> +1.2354804e+02 </wgt>
<wgt id='2023'> +1.2168472e+02 </wgt>
<wgt id='2024'> +1.2322702e+02 </wgt>
<wgt id='2025'> +1.2195967e+02 </wgt>
<wgt id='2026'> +1.2235680e+02 </wgt>
<wgt id='2027'> +1.2268698e+02 </wgt>
<wgt id='2028'> +1.2167713e+02 </wgt>
<wgt id='2029'> +1.2335496e+02 </wgt>
<wgt id='2030'> +1.2239137e+02 </wgt>
<wgt id='2031'> +1.2342243e+02 </wgt>
<wgt id='2032'> +1.2771588e+02 </wgt>
<wgt id='2033'> +1.2577836e+02 </wgt>
<wgt id='2034'> +1.2594902e+02 </wgt>
<wgt id='2035'> +1.2563079e+02 </wgt>
<wgt id='2036'> +1.2561465e+02 </wgt>
<wgt id='2037'> +1.2596468e+02 </wgt>
<wgt id='2038'> +1.2553911e+02 </wgt>
<wgt id='2039'> +1.2603892e+02 </wgt>
<wgt id='2040'> +1.2529143e+02 </wgt>
<wgt id='2041'> +1.2627386e+02 </wgt>
<wgt id='2042'> +1.2647382e+02 </wgt>
<wgt id='2043'> +1.2510342e+02 </wgt>
<wgt id='2044'> +1.2617829e+02 </wgt>
<wgt id='2045'> +1.2540037e+02 </wgt>
<wgt id='2046'> +1.2535174e+02 </wgt>
<wgt id='2047'> +1.2622520e+02 </wgt>
<wgt id='2048'> +1.2552577e+02 </wgt>
<wgt id='2049'> +1.2601887e+02 </wgt>
<wgt id='2050'> +1.2613955e+02 </wgt>
<wgt id='2051'> +1.2542914e+02 </wgt>
<wgt id='2052'> +1.2570537e+02 </wgt>
<wgt id='2053'> +1.2587565e+02 </wgt>
<wgt id='2054'> +1.2489550e+02 </wgt>
<wgt id='2055'> +1.2666093e+02 </wgt>
<wgt id='2056'> +1.2592235e+02 </wgt>
<wgt id='2057'> +1.2557611e+02 </wgt>
<wgt id='2058'> +1.2522687e+02 </wgt>
<wgt id='2059'> +1.2604995e+02 </wgt>
<wgt id='2060'> +1.2498803e+02 </wgt>
<wgt id='2061'> +1.2624395e+02 </wgt>
<wgt id='2062'> +1.2561874e+02 </wgt>
<wgt id='2063'> +1.2696669e+02 </wgt>
<wgt id='2064'> +1.2366398e+02 </wgt>
<wgt id='2065'> +1.2716876e+02 </wgt>
<wgt id='2066'> +1.2440473e+02 </wgt>
<wgt id='2067'> +1.2608177e+02 </wgt>
<wgt id='2068'> +1.2381181e+02 </wgt>
<wgt id='2069'> +1.2546015e+02 </wgt>
<wgt id='2070'> +1.2610169e+02 </wgt>
<wgt id='2071'> +1.2324867e+02 </wgt>
<wgt id='2072'> +1.2635857e+02 </wgt>
<wgt id='2073'> +1.2347215e+02 </wgt>
<wgt id='2074'> +1.2792896e+02 </wgt>
<wgt id='2075'> +1.2535030e+02 </wgt>
<wgt id='2076'> +1.0929042e+02 </wgt>
<wgt id='2077'> +1.0926342e+02 </wgt>
<wgt id='2078'> +1.0923680e+02 </wgt>
<wgt id='2079'> +1.0920978e+02 </wgt>
<wgt id='2080'> +1.0918239e+02 </wgt>
<wgt id='2081'> +1.0915612e+02 </wgt>
<wgt id='2082'> +1.0912865e+02 </wgt>
<wgt id='2083'> +1.0910167e+02 </wgt>
<wgt id='2084'> +1.0907436e+02 </wgt>
<wgt id='2085'> +1.0904804e+02 </wgt>
<wgt id='2086'> +1.0902074e+02 </wgt>
<wgt id='2087'> +1.0899364e+02 </wgt>
<wgt id='2088'> +1.0896710e+02 </wgt>
<wgt id='2089'> +1.0893968e+02 </wgt>
<wgt id='2090'> +1.0891272e+02 </wgt>
<wgt id='2091'> +1.0888530e+02 </wgt>
<wgt id='2092'> +1.0885906e+02 </wgt>
<wgt id='2093'> +1.0883162e+02 </wgt>
<wgt id='2094'> +1.0880471e+02 </wgt>
<wgt id='2095'> +1.0877812e+02 </wgt>
<wgt id='2096'> +1.0875110e+02 </wgt>
<wgt id='2097'> +1.0872369e+02 </wgt>
<wgt id='2098'> +1.0869667e+02 </wgt>
<wgt id='2099'> +1.0867009e+02 </wgt>
<wgt id='2100'> +1.0864314e+02 </wgt>
<wgt id='2101'> +1.0861571e+02 </wgt>
<wgt id='2102'> +1.0858947e+02 </wgt>
<wgt id='2103'> +1.0856224e+02 </wgt>
<wgt id='2104'> +1.0853485e+02 </wgt>
<wgt id='2105'> +1.0850867e+02 </wgt>
<wgt id='2106'> +1.0848118e+02 </wgt>
<wgt id='2107'> +1.1169296e+02 </wgt>
<wgt id='2108'> +1.1179495e+02 </wgt>
<wgt id='2109'> +1.1132788e+02 </wgt>
<wgt id='2110'> +1.1195838e+02 </wgt>
<wgt id='2111'> +1.1233538e+02 </wgt>
<wgt id='2112'> +1.1245808e+02 </wgt>
<wgt id='2113'> +1.1220058e+02 </wgt>
<wgt id='2114'> +1.1193388e+02 </wgt>
<wgt id='2115'> +1.1172418e+02 </wgt>
<wgt id='2116'> +1.1187869e+02 </wgt>
<wgt id='2117'> +1.1164792e+02 </wgt>
<wgt id='2118'> +1.1272752e+02 </wgt>
<wgt id='2119'> +1.1166606e+02 </wgt>
<wgt id='2120'> +1.1211024e+02 </wgt>
<wgt id='2121'> +1.1113797e+02 </wgt>
<wgt id='2122'> +1.1153782e+02 </wgt>
<wgt id='2123'> +1.1164431e+02 </wgt>
<wgt id='2124'> +1.1160077e+02 </wgt>
<wgt id='2125'> +1.1216426e+02 </wgt>
<wgt id='2126'> +1.1048409e+02 </wgt>
<wgt id='2127'> +1.1185321e+02 </wgt>
<wgt id='2128'> +1.1212206e+02 </wgt>
<wgt id='2129'> +1.1101087e+02 </wgt>
<wgt id='2130'> +1.1236894e+02 </wgt>
<wgt id='2131'> +1.1245797e+02 </wgt>
<wgt id='2132'> +1.1150549e+02 </wgt>
<wgt id='2133'> +1.1157835e+02 </wgt>
<wgt id='2134'> +1.1193299e+02 </wgt>
<wgt id='2135'> +1.1164447e+02 </wgt>
<wgt id='2136'> +1.1158631e+02 </wgt>
<wgt id='2137'> +1.1160981e+02 </wgt>
<wgt id='2138'> +1.1234964e+02 </wgt>
<wgt id='2139'> +1.1193618e+02 </wgt>
<wgt id='2140'> +1.1209371e+02 </wgt>
<wgt id='2141'> +1.1208875e+02 </wgt>
<wgt id='2142'> +1.1125854e+02 </wgt>
<wgt id='2143'> +1.1244311e+02 </wgt>
<wgt id='2144'> +1.1169556e+02 </wgt>
<wgt id='2145'> +1.1163979e+02 </wgt>
<wgt id='2146'> +1.1164648e+02 </wgt>
<wgt id='2147'> +1.1129545e+02 </wgt>
<wgt id='2148'> +1.1151917e+02 </wgt>
<wgt id='2149'> +1.1189570e+02 </wgt>
<wgt id='2150'> +1.1145156e+02 </wgt>
<wgt id='2151'> +1.1189806e+02 </wgt>
<wgt id='2152'> +1.1150663e+02 </wgt>
<wgt id='2153'> +1.1152398e+02 </wgt>
<wgt id='2154'> +1.1150775e+02 </wgt>
<wgt id='2155'> +1.1180710e+02 </wgt>
<wgt id='2156'> +1.1153890e+02 </wgt>
<wgt id='2157'> +1.1164740e+02 </wgt>
<wgt id='2158'> +1.1172987e+02 </wgt>
<wgt id='2159'> +1.1181667e+02 </wgt>
<wgt id='2160'> +1.1151705e+02 </wgt>
<wgt id='2161'> +1.1162190e+02 </wgt>
<wgt id='2162'> +1.1158906e+02 </wgt>
<wgt id='2163'> +1.1172578e+02 </wgt>
<wgt id='2164'> +1.1162942e+02 </wgt>
<wgt id='2165'> +1.1151374e+02 </wgt>
<wgt id='2166'> +1.1170754e+02 </wgt>
<wgt id='2167'> +1.1161760e+02 </wgt>
<wgt id='2168'> +1.1167674e+02 </wgt>
<wgt id='2169'> +1.1185783e+02 </wgt>
<wgt id='2170'> +1.1163970e+02 </wgt>
<wgt id='2171'> +1.1163332e+02 </wgt>
<wgt id='2172'> +1.1173501e+02 </wgt>
<wgt id='2173'> +1.1176527e+02 </wgt>
<wgt id='2174'> +1.1173728e+02 </wgt>
<wgt id='2175'> +1.1158593e+02 </wgt>
<wgt id='2176'> +1.1176087e+02 </wgt>
<wgt id='2177'> +1.1176268e+02 </wgt>
<wgt id='2178'> +1.1173573e+02 </wgt>
<wgt id='2179'> +1.1178460e+02 </wgt>
<wgt id='2180'> +1.1165157e+02 </wgt>
<wgt id='2181'> +1.1169411e+02 </wgt>
<wgt id='2182'> +1.1166492e+02 </wgt>
<wgt id='2183'> +1.1172135e+02 </wgt>
<wgt id='2184'> +1.1175038e+02 </wgt>
<wgt id='2185'> +1.1169563e+02 </wgt>
<wgt id='2186'> +1.1172936e+02 </wgt>
<wgt id='2187'> +1.1172329e+02 </wgt>
<wgt id='2188'> +1.1170500e+02 </wgt>
<wgt id='2189'> +1.1170673e+02 </wgt>
<wgt id='2190'> +1.1164956e+02 </wgt>
<wgt id='2191'> +1.1162099e+02 </wgt>
<wgt id='2192'> +1.1164744e+02 </wgt>
<wgt id='2193'> +1.1166474e+02 </wgt>
<wgt id='2194'> +1.1164682e+02 </wgt>
<wgt id='2195'> +1.1168173e+02 </wgt>
<wgt id='2196'> +1.1168412e+02 </wgt>
<wgt id='2197'> +1.1169374e+02 </wgt>
<wgt id='2198'> +1.1169134e+02 </wgt>
<wgt id='2199'> +1.1168409e+02 </wgt>
<wgt id='2200'> +1.1168810e+02 </wgt>
<wgt id='2201'> +1.1162218e+02 </wgt>
<wgt id='2202'> +1.1171242e+02 </wgt>
<wgt id='2203'> +1.1170432e+02 </wgt>
<wgt id='2204'> +1.1168153e+02 </wgt>
<wgt id='2205'> +1.1168630e+02 </wgt>
<wgt id='2206'> +1.1167072e+02 </wgt>
<wgt id='2207'> +1.1169175e+02 </wgt>
<wgt id='2208'> +1.1169268e+02 </wgt>
<wgt id='2209'> +1.1169128e+02 </wgt>
<wgt id='2210'> +1.1169320e+02 </wgt>
<wgt id='2211'> +1.1169327e+02 </wgt>
<wgt id='2212'> +1.1169372e+02 </wgt>
<wgt id='2213'> +1.1169307e+02 </wgt>
<wgt id='2214'> +1.1169188e+02 </wgt>
<wgt id='2215'> +1.0840268e+02 </wgt>
<wgt id='2216'> +1.0451869e+02 </wgt>
<wgt id='2217'> +1.0743137e+02 </wgt>
<wgt id='2218'> +1.1435314e+02 </wgt>
<wgt id='2219'> +1.1284396e+02 </wgt>
<wgt id='2220'> +1.0743514e+02 </wgt>
<wgt id='2221'> +1.0888278e+02 </wgt>
<wgt id='2222'> +1.0856525e+02 </wgt>
<wgt id='2223'> +1.0602192e+02 </wgt>
<wgt id='2224'> +1.0901815e+02 </wgt>
<wgt id='2225'> +1.0511239e+02 </wgt>
<wgt id='2226'> +1.0619761e+02 </wgt>
<wgt id='2227'> +1.1030726e+02 </wgt>
<wgt id='2228'> +1.1079878e+02 </wgt>
<wgt id='2229'> +1.0895528e+02 </wgt>
<wgt id='2230'> +1.0758851e+02 </wgt>
<wgt id='2231'> +1.0610609e+02 </wgt>
<wgt id='2232'> +1.0631639e+02 </wgt>
<wgt id='2233'> +1.0436443e+02 </wgt>
<wgt id='2234'> +1.0677316e+02 </wgt>
<wgt id='2235'> +1.0687576e+02 </wgt>
<wgt id='2236'> +1.1243764e+02 </wgt>
<wgt id='2237'> +1.0657600e+02 </wgt>
<wgt id='2238'> +1.1262770e+02 </wgt>
<wgt id='2239'> +1.1188616e+02 </wgt>
<wgt id='2240'> +1.0911146e+02 </wgt>
<wgt id='2241'> +1.1047162e+02 </wgt>
<wgt id='2242'> +1.0631141e+02 </wgt>
<wgt id='2243'> +1.0808784e+02 </wgt>
<wgt id='2244'> +1.0821832e+02 </wgt>
<wgt id='2245'> +1.0916435e+02 </wgt>
<wgt id='2246'> +1.1016370e+02 </wgt>
<wgt id='2247'> +1.0869229e+02 </wgt>
<wgt id='2248'> +1.0859673e+02 </wgt>
<wgt id='2249'> +1.1012301e+02 </wgt>
<wgt id='2250'> +1.1177050e+02 </wgt>
<wgt id='2251'> +1.0882569e+02 </wgt>
<wgt id='2252'> +1.0553063e+02 </wgt>
<wgt id='2253'> +1.0321388e+02 </wgt>
<wgt id='2254'> +1.0815283e+02 </wgt>
<wgt id='2255'> +1.0943632e+02 </wgt>
<wgt id='2256'> +1.0963751e+02 </wgt>
<wgt id='2257'> +1.0863999e+02 </wgt>
<wgt id='2258'> +1.0985420e+02 </wgt>
<wgt id='2259'> +1.0726248e+02 </wgt>
<wgt id='2260'> +1.0876220e+02 </wgt>
<wgt id='2261'> +1.0870270e+02 </wgt>
<wgt id='2262'> +1.0494704e+02 </wgt>
<wgt id='2263'> +1.0723397e+02 </wgt>
<wgt id='2264'> +1.1041896e+02 </wgt>
<wgt id='2265'> +1.1142286e+02 </wgt>
<wgt id='2266'> +1.0969449e+02 </wgt>
<wgt id='2267'> +1.0999721e+02 </wgt>
<wgt id='2268'> +1.0896002e+02 </wgt>
<wgt id='2269'> +1.0905503e+02 </wgt>
<wgt id='2270'> +1.1005260e+02 </wgt>
<wgt id='2271'> +1.0568490e+02 </wgt>
<wgt id='2272'> +1.1142248e+02 </wgt>
<wgt id='2273'> +1.1136901e+02 </wgt>
<wgt id='2274'> +1.0706192e+02 </wgt>
<wgt id='2275'> +1.0859161e+02 </wgt>
<wgt id='2276'> +1.0934686e+02 </wgt>
<wgt id='2277'> +1.0814505e+02 </wgt>
<wgt id='2278'> +1.0997547e+02 </wgt>
<wgt id='2279'> +1.0022894e+02 </wgt>
<wgt id='2280'> +1.1093285e+02 </wgt>
<wgt id='2281'> +1.0865980e+02 </wgt>
<wgt id='2282'> +1.0820896e+02 </wgt>
<wgt id='2283'> +1.0868537e+02 </wgt>
<wgt id='2284'> +1.0568816e+02 </wgt>
<wgt id='2285'> +1.0646097e+02 </wgt>
<wgt id='2286'> +1.0974657e+02 </wgt>
<wgt id='2287'> +1.0777289e+02 </wgt>
<wgt id='2288'> +1.0375137e+02 </wgt>
<wgt id='2289'> +1.1413373e+02 </wgt>
<wgt id='2290'> +1.0792861e+02 </wgt>
<wgt id='2291'> +1.0927489e+02 </wgt>
<wgt id='2292'> +1.0787030e+02 </wgt>
<wgt id='2293'> +1.0801741e+02 </wgt>
<wgt id='2294'> +1.0744228e+02 </wgt>
<wgt id='2295'> +1.0939092e+02 </wgt>
<wgt id='2296'> +1.0994860e+02 </wgt>
<wgt id='2297'> +1.1146900e+02 </wgt>
<wgt id='2298'> +1.0493191e+02 </wgt>
<wgt id='2299'> +1.0910104e+02 </wgt>
<wgt id='2300'> +1.0816145e+02 </wgt>
<wgt id='2301'> +1.0634317e+02 </wgt>
<wgt id='2302'> +1.0921870e+02 </wgt>
<wgt id='2303'> +1.1127557e+02 </wgt>
<wgt id='2304'> +1.0557428e+02 </wgt>
<wgt id='2305'> +1.0914097e+02 </wgt>
<wgt id='2306'> +1.0752508e+02 </wgt>
<wgt id='2307'> +1.0826417e+02 </wgt>
<wgt id='2308'> +1.0707534e+02 </wgt>
<wgt id='2309'> +1.0686383e+02 </wgt>
<wgt id='2310'> +1.0566653e+02 </wgt>
<wgt id='2311'> +1.0734366e+02 </wgt>
<wgt id='2312'> +1.0783329e+02 </wgt>
<wgt id='2313'> +1.1193697e+02 </wgt>
<wgt id='2314'> +1.0987246e+02 </wgt>
<wgt id='2315'> +1.0464633e+02 </wgt>
<wgt id='2316'> +1.0560556e+02 </wgt>
<wgt id='2317'> +1.1141528e+02 </wgt>
<wgt id='2318'> +1.1184081e+02 </wgt>
<wgt id='2319'> +1.1527309e+02 </wgt>
<wgt id='2320'> +1.5261663e+02 </wgt>
<wgt id='2321'> +1.0242831e+02 </wgt>
<wgt id='2322'> +1.4531300e+02 </wgt>
</rwgt>
</event>
<event>
13      1 +1.1579678e+02 3.59402300e+02 7.81859000e-03 9.78195300e-02
       -2 -1    0    0    0  501 +0.0000000000e+00 +0.0000000000e+00 +1.5836885566e+02 1.5836885566e+02 0.0000000000e+00 0.0000e+00 1.0000e+00
        2 -1    0    0  503    0 +0.0000000000e+00 +0.0000000000e+00 -1.0854168919e+03 1.0854168919e+03 0.0000000000e+00 0.0000e+00 -1.0000e+00
        6  2    1    2  502    0 +1.9310303059e+02 +2.7684902334e+02 -6.2715194257e+02 7.3283531054e+02 1.7260901242e+02 0.0000e+00 0.0000e+00
        5  1    3    3  502    0 +5.1037125657e+01 +7.6760342632e+01 -3.1267449554e+02 3.2597895416e+02 0.0000000000e+00 0.0000e+00 -1.0000e+00
       24  2    3    3    0    0 +1.4206590493e+02 +2.0008868070e+02 -3.1447744703e+02 4.0685635638e+02 8.0111350933e+01 0.0000e+00 0.0000e+00
      -11  1    5    5    0    0 +3.6618167709e+01 +9.9674434528e+00 -7.0522099012e+01 8.0084996001e+01 0.0000000000e+00 0.0000e+00 1.0000e+00
       12  1    5    5    0    0 +1.0544773722e+02 +1.9012123725e+02 -2.4395534802e+02 3.2677136038e+02 0.0000000000e+00 0.0000e+00 -1.0000e+00
       -6  2    1    2    0  501 -1.8489722718e+02 -2.4430854066e+02 -1.9538235287e+02 4.0118095019e+02 1.6999483322e+02 0.0000e+00 0.0000e+00
       -5  1    8    8    0  501 -1.0470931182e+01 +7.9211028464e+00 -5.0909536036e+01 5.2575328144e+01 0.0000000000e+00 0.0000e+00 1.0000e+00
      -24  2    8    8    0    0 -1.7442629600e+02 -2.5222964350e+02 -1.4447281683e+02 3.4860562204e+02 8.1296734976e+01 0.0000e+00 0.0000e+00
       15  1   10   10    0    0 -3.0938472123e+01 -2.4034435982e+01 +6.4012459276e+00 3.9696588263e+01 0.0000000000e+00 0.0000e+00 -1.0000e+00
      -16  1   10   10    0    0 -1.4348782388e+02 -2.2819520752e+02 -1.5087406276e+02 3.0890903378e+02 0.0000000000e+00 0.0000e+00 1.0000e+00
       21  1    1    2  503  502 -8.2058034083e+00 -3.2540482678e+01 -1.0451374081e+02 1.0976948683e+02 0.0000000000e+00 0.0000e+00 1.0000e+00
<scales pt_clust_1="13000.0" pt_clust_2="13000.0" pt_clust_3="13000.0" pt_clust_4="13000.0" pt_clust_5="13000.0" pt_clust_6="13000.0" pt_clust_7="33.65267"></scales>
<mgrwt>
<rscale>  2 0.35940232e+03</rscale>
<asrwt>  1 0.33652669e+02</asrwt>
<pdfrwt beam="1">  2        2        2 0.16698721e+00 0.14771957e+00 0.33652669e+02 0.35940232e+03</pdfrwt>
<pdfrwt beam="2">  1       -2 0.24364439e-01 0.33652669e+02</pdfrwt>
<totfact> 0.53692234e-01</totfact>
</mgrwt>
<clustering>
<clus scale="   33.653">  2  5  1 -1</clus>
<clus scale="  720.403">  3  4 -1 -1</clus>
<clus scale="   33.653">  2  3  1 -1</clus>
</clustering>
<rwgt>
<wgt id='reference_point'> +1.1579678e+02 </wgt>
<wgt id='eftrwgt0_ctg_-0.754_cqq83_2.978_cqq81_11.175_cqu8_-0.722_cqd8_-22.551_ctq8_11.076_ctu8_-15.131_ctd8_20.128_cqq13_0.321_cqq11_-6.675_cqu1_-3.516_cqd1_6.151_ctq1_5.402_ctu1_-8.742_ctd1_5.367'> +1.7663351e+02 </wgt>
<wgt id='eftrwgt1_ctg_-1.195_cqq83_-15.761_cqq81_-4.235_cqu8_-15.499_cqd8_-10.228_ctq8_-0.966_ctu8_-17.272_ctd8_-16.58_cqq13_-4.893_cqq11_4.278_cqu1_-0.839_cqd1_-4.333_ctq1_2.613_ctu1_-1.417_ctd1_-2.816'> +5.9729708e+01 </wgt>
<wgt id='eftrwgt2_ctg_-1.383_cqq83_5.883_cqq81_-5.515_cqu8_2.394_cqd8_-9.03_ctq8_-0.054_ctu8_-11.517_ctd8_-10.825_cqq13_-0.011_cqq11_4.192_cqu1_6.747_cqd1_8.549_ctq1_7.513_ctu1_-7.841_ctd1_7.605'> +3.4327065e+01 </wgt>
<wgt id='eftrwgt3_ctg_0.83_cqq83_7.564_cqq81_-4.758_cqu8_11.03_cqd8_2.018_ctq8_13.609_ctu8_6.693_ctd8_12.801_cqq13_1.059_cqq11_-4.128_cqu1_0.962_cqd1_4.274_ctq1_8.055_ctu1_-10.409_ctd1_-1.438'> +2.7917742e+01 </wgt>
<wgt id='eftrwgt4_ctg_0.635_cqq83_-11.713_cqq81_0.383_cqu8_10.984_cqd8_-20.924_ctq8_-2.091_ctu8_5.555_ctd8_1.514_cqq13_3.429_cqq11_-0.162_cqu1_-10.649_cqd1_5.475_ctq1_5.872_ctu1_-1.687_ctd1_-8.071'> +5.7718461e+01 </wgt>
<wgt id='eftrwgt5_ctg_0.29_cqq83_4.054_cqq81_-1.527_cqu8_-4.305_cqd8_-20.381_ctq8_12.02_ctu8_-17.198_ctd8_4.416_cqq13_-0.765_cqq11_-1.818_cqu1_-0.276_cqd1_12.045_ctq1_-6.626_ctu1_4.803_ctd1_5.994'> +2.9336765e+01 </wgt>
<wgt id='eftrwgt6_ctg_0.363_cqq83_-5.38_cqq81_10.485_cqu8_-11.932_cqd8_-4.948_ctq8_9.185_ctu8_-12.064_ctd8_17.315_cqq13_-0.222_cqq11_-6.441_cqu1_-7.804_cqd1_-9.036_ctq1_-7.458_ctu1_9.293_ctd1_3.977'> +1.3240659e+02 </wgt>
<wgt id='eftrwgt7_ctg_-1.197_cqq83_-4.451_cqq81_7.597_cqu8_-7.443_cqd8_22.122_ctq8_3.031_ctu8_-12.259_ctd8_16.154_cqq13_-6.717_cqq11_-0.945_cqu1_5.096_cqd1_2.249_ctq1_-0.68_ctu1_-7.751_ctd1_8.44'> +1.3562973e+02 </wgt>
<wgt id='eftrwgt8_ctg_0.542_cqq83_-14.102_cqq81_-2.643_cqu8_18.837_cqd8_-13.941_ctq8_-13.421_ctu8_13.125_ctd8_-6.068_cqq13_-0.748_cqq11_-1.138_cqu1_3.707_cqd1_-4.4_ctq1_2.065_ctu1_5.13_ctd1_4.025'> +3.5812359e+01 </wgt>
<wgt id='eftrwgt9_ctg_1.074_cqq83_4.736_cqq81_-13.002_cqu8_-15.389_cqd8_0.91_ctq8_-9.328_ctu8_7.624_ctd8_-22.019_cqq13_3.75_cqq11_-2.977_cqu1_-3.02_cqd1_-13.923_ctq1_-7.186_ctu1_2.633_ctd1_-7.896'> +9.7593422e+00 </wgt>
<wgt id='eftrwgt10_ctg_1.238_cqq83_-17.533_cqq81_12.633_cqu8_3.116_cqd8_9.117_ctq8_-4.456_ctu8_0.149_ctd8_15.76_cqq13_-4.569_cqq11_4.155_cqu1_6.051_cqd1_-8.105_ctq1_0.824_ctu1_0.75_ctd1_6.587'> +1.1469450e+00 </wgt>
<wgt id='eftrwgt11_ctg_-1.233_cqq83_-17.319_cqq81_-5.312_cqu8_16.53_cqd8_-9.607_ctq8_-3.402_ctu8_-16.447_ctd8_-22.15_cqq13_-0.265_cqq11_4.394_cqu1_-0.387_cqd1_0.421_ctq1_2.017_ctu1_-6.772_ctd1_6.873'> +1.6672263e+02 </wgt>
<wgt id='eftrwgt12_ctg_0.408_cqq83_-9.97_cqq81_3.05_cqu8_8.428_cqd8_-10.45_ctq8_-4.549_ctu8_7.41_ctd8_-18.252_cqq13_4.276_cqq11_0.305_cqu1_-4.657_cqd1_-5.86_ctq1_4.293_ctu1_-6.686_ctd1_-6.47'> +6.0490464e+01 </wgt>
<wgt id='eftrwgt13_ctg_1.091_cqq83_16.651_cqq81_9.034_cqu8_-17.068_cqd8_-16.41_ctq8_5.505_ctu8_-6.023_ctd8_-19.606_cqq13_-1.427_cqq11_2.94_cqu1_-7.645_cqd1_-9.373_ctq1_-6.218_ctu1_1.987_ctd1_-10.94'> +1.3876342e+02 </wgt>
<wgt id='eftrwgt14_ctg_-0.901_cqq83_-3.298_cqq81_-0.028_cqu8_-17.181_cqd8_-17.858_ctq8_-13.488_ctu8_-10.256_ctd8_-0.921_cqq13_4.443_cqq11_-0.633_cqu1_-9.228_cqd1_11.328_ctq1_-0.213_ctu1_-0.551_ctd1_-5.789'> +3.2139548e+01 </wgt>
<wgt id='eftrwgt15_ctg_1.026_cqq83_10.852_cqq81_-7.218_cqu8_6.384_cqd8_16.276_ctq8_-4.737_ctu8_-13.404_ctd8_1.733_cqq13_7.315_cqq11_-8.101_cqu1_-2.738_cqd1_7.548_ctq1_8.479_ctu1_-6.738_ctd1_-5.539'> +7.7298206e+00 </wgt>
<wgt id='eftrwgt16_ctg_-0.132_cqq83_-16.656_cqq81_4.305_cqu8_-12.062_cqd8_4.31_ctq8_13.615_ctu8_3.27_ctd8_11.552_cqq13_-1.799_cqq11_7.423_cqu1_6.843_cqd1_13.535_ctq1_0.146_ctu1_7.054_ctd1_9.686'> +1.0621505e+02 </wgt>
<wgt id='eftrwgt17_ctg_0.712_cqq83_-6.61_cqq81_-4.301_cqu8_-1.403_cqd8_6.303_ctq8_-4.86_ctu8_3.128_ctd8_-14.844_cqq13_0.039_cqq11_-4.957_cqu1_2.629_cqd1_-12.532_ctq1_4.939_ctu1_-4.209_ctd1_-3.655'> +3.2848376e+01 </wgt>
<wgt id='eftrwgt18_ctg_-1.35_cqq83_-11.68_cqq81_4.439_cqu8_13.372_cqd8_-0.653_ctq8_5.688_ctu8_0.67_ctd8_-7.709_cqq13_-5.475_cqq11_-5.399_cqu1_3.601_cqd1_-8.439_ctq1_1.117_ctu1_-0.006_ctd1_13.614'> +1.9071618e+02 </wgt>
<wgt id='eftrwgt19_ctg_0.098_cqq83_15.517_cqq81_-5.712_cqu8_-4.013_cqd8_-7.836_ctq8_-1.046_ctu8_-12.063_ctd8_6.039_cqq13_-3.557_cqq11_7.181_cqu1_6.996_cqd1_-3.116_ctq1_1.869_ctu1_1.545_ctd1_-10.959'> +2.8981105e+01 </wgt>
<wgt id='eftrwgt20_ctg_0.401_cqq83_8.943_cqq81_9.36_cqu8_14.22_cqd8_-14.886_ctq8_8.313_ctu8_5.302_ctd8_-10.568_cqq13_-2.406_cqq11_5.185_cqu1_-6.752_cqd1_-3.344_ctq1_-0.322_ctu1_-1.749_ctd1_2.241'> +6.7368712e+01 </wgt>
<wgt id='eftrwgt21_ctg_0.263_cqq83_-7.003_cqq81_9.705_cqu8_13.582_cqd8_19.058_ctq8_12.946_ctu8_6.424_ctd8_17.248_cqq13_-4.887_cqq11_-3.405_cqu1_10.633_cqd1_-6.948_ctq1_5.694_ctu1_-6.922_ctd1_1.277'> +1.4804771e+02 </wgt>
<wgt id='eftrwgt22_ctg_0.627_cqq83_-17.281_cqq81_-4.961_cqu8_16.938_cqd8_22.735_ctq8_-1.208_ctu8_-3.511_ctd8_-5.122_cqq13_5.387_cqq11_-4.565_cqu1_7.804_cqd1_11.098_ctq1_-1.5_ctu1_8.736_ctd1_13.194'> +8.6934594e+01 </wgt>
<wgt id='eftrwgt23_ctg_-0.648_cqq83_15.811_cqq81_12.009_cqu8_-18.949_cqd8_0.783_ctq8_-3.059_ctu8_-17.702_ctd8_-6.711_cqq13_-4.356_cqq11_3.652_cqu1_-8.368_cqd1_-4.016_ctq1_2.411_ctu1_3.109_ctd1_4.001'> +1.7903360e+02 </wgt>
<wgt id='eftrwgt24_ctg_0.279_cqq83_3.419_cqq81_-12.348_cqu8_-3.685_cqd8_-7.428_ctq8_10.986_ctu8_-5.15_ctd8_-17.732_cqq13_-2.497_cqq11_-5.647_cqu1_0.002_cqd1_-4.035_ctq1_-3.93_ctu1_-1.854_ctd1_8.352'> +1.0751194e+02 </wgt>
<wgt id='eftrwgt25_ctg_1.257_cqq83_8.7_cqq81_-13.787_cqu8_1.396_cqd8_-4.553_ctq8_0.437_ctu8_6.957_ctd8_15.293_cqq13_7.476_cqq11_-5.974_cqu1_-3.383_cqd1_-2.371_ctq1_-0.219_ctu1_2.622_ctd1_-7.856'> +7.7524878e+00 </wgt>
<wgt id='eftrwgt26_ctg_-1.323_cqq83_-5.612_cqq81_0.616_cqu8_6.632_cqd8_-3.336_ctq8_13.782_ctu8_-3.939_ctd8_-15.742_cqq13_2.848_cqq11_5.501_cqu1_-1.125_cqd1_-13.284_ctq1_-0.806_ctu1_-0.98_ctd1_-3.316'> +1.4101240e+02 </wgt>
<wgt id='eftrwgt27_ctg_-1.062_cqq83_-5.785_cqq81_-3.069_cqu8_7.318_cqd8_-18.47_ctq8_-5.182_ctu8_-7.369_ctd8_-7.449_cqq13_-0.119_cqq11_-7.366_cqu1_-4.956_cqd1_-13.113_ctq1_-1.612_ctu1_-8.864_ctd1_-9.975'> +8.5998493e+01 </wgt>
<wgt id='eftrwgt28_ctg_0.241_cqq83_-10.317_cqq81_-13.275_cqu8_-8.248_cqd8_-17.794_ctq8_-12.823_ctu8_-16.47_ctd8_-4.449_cqq13_-2.362_cqq11_4.11_cqu1_-10.775_cqd1_-8.582_ctq1_2.037_ctu1_-10.4_ctd1_1.059'> +1.2292398e+02 </wgt>
<wgt id='eftrwgt29_ctg_0.186_cqq83_-14.559_cqq81_-7.088_cqu8_-18.724_cqd8_-0.974_ctq8_-0.831_ctu8_6.546_ctd8_-21.38_cqq13_-1.637_cqq11_2.85_cqu1_2.42_cqd1_-0.935_ctq1_-8.07_ctu1_5.575_ctd1_0.549'> +8.3831000e+01 </wgt>
<wgt id='eftrwgt30_ctg_-1.395_cqq83_-10.203_cqq81_12.938_cqu8_3.137_cqd8_11.131_ctq8_9.079_ctu8_-0.374_ctd8_-23.313_cqq13_-4.383_cqq11_-1.0_cqu1_1.541_cqd1_2.342_ctq1_-4.241_ctu1_-4.162_ctd1_-12.306'> +7.7421381e+01 </wgt>
<wgt id='eftrwgt31_ctg_0.115_cqq83_-15.901_cqq81_-6.358_cqu8_-16.907_cqd8_-5.747_ctq8_2.066_ctu8_-12.966_ctd8_-16.328_cqq13_-3.096_cqq11_2.684_cqu1_-8.352_cqd1_-6.211_ctq1_2.511_ctu1_5.799_ctd1_9.554'> +7.4378478e+01 </wgt>
<wgt id='eftrwgt32_ctg_1.117_cqq83_2.704_cqq81_7.787_cqu8_-16.533_cqd8_8.904_ctq8_10.253_ctu8_2.612_ctd8_4.645_cqq13_-5.493_cqq11_2.812_cqu1_-7.509_cqd1_-3.19_ctq1_-6.22_ctu1_5.276_ctd1_5.86'> +7.2574076e+01 </wgt>
<wgt id='eftrwgt33_ctg_0.209_cqq83_-8.091_cqq81_-11.607_cqu8_-16.123_cqd8_-8.064_ctq8_-3.29_ctu8_-14.767_ctd8_-13.018_cqq13_-5.739_cqq11_0.542_cqu1_-1.411_cqd1_-8.179_ctq1_-5.997_ctu1_-7.343_ctd1_12.169'> +6.3545260e+01 </wgt>
<wgt id='eftrwgt34_ctg_-1.122_cqq83_6.387_cqq81_-1.268_cqu8_-5.867_cqd8_-9.336_ctq8_-2.052_ctu8_-17.13_ctd8_21.742_cqq13_0.581_cqq11_5.886_cqu1_-10.133_cqd1_-11.29_ctq1_-6.71_ctu1_3.942_ctd1_9.713'> +5.6039653e+01 </wgt>
<wgt id='eftrwgt35_ctg_-1.321_cqq83_10.781_cqq81_5.96_cqu8_-16.967_cqd8_5.511_ctq8_-3.29_ctu8_-3.816_ctd8_-14.387_cqq13_-5.938_cqq11_-2.941_cqu1_-5.98_cqd1_11.576_ctq1_0.788_ctu1_10.277_ctd1_-4.905'> +2.9735977e+02 </wgt>
<wgt id='eftrwgt36_ctg_-0.68_cqq83_-4.656_cqq81_2.64_cqu8_-5.091_cqd8_-6.267_ctq8_12.357_ctu8_4.141_ctd8_8.527_cqq13_4.229_cqq11_-0.357_cqu1_6.729_cqd1_-0.812_ctq1_5.304_ctu1_-6.109_ctd1_-13.243'> +3.0864231e+01 </wgt>
<wgt id='eftrwgt37_ctg_-1.287_cqq83_-9.3_cqq81_-1.066_cqu8_-15.272_cqd8_5.656_ctq8_0.824_ctu8_-7.129_ctd8_-5.439_cqq13_-7.864_cqq11_0.302_cqu1_3.094_cqd1_1.84_ctq1_-4.372_ctu1_-7.563_ctd1_2.217'> +8.9704184e+01 </wgt>
<wgt id='eftrwgt38_ctg_0.789_cqq83_2.618_cqq81_-0.896_cqu8_4.006_cqd8_12.013_ctq8_-9.44_ctu8_-16.781_ctd8_-6.655_cqq13_-5.548_cqq11_2.529_cqu1_7.52_cqd1_-4.256_ctq1_5.745_ctu1_0.798_ctd1_7.829'> +2.1331369e+01 </wgt>
<wgt id='eftrwgt39_ctg_0.721_cqq83_1.632_cqq81_7.373_cqu8_-0.631_cqd8_4.104_ctq8_12.802_ctu8_-10.868_ctd8_-5.968_cqq13_-1.832_cqq11_-3.336_cqu1_-4.17_cqd1_-6.056_ctq1_-3.676_ctu1_5.679_ctd1_-9.027'> +1.1475653e+02 </wgt>
<wgt id='eftrwgt40_ctg_-0.362_cqq83_-1.589_cqq81_6.197_cqu8_-18.27_cqd8_7.832_ctq8_-9.399_ctu8_-6.455_ctd8_10.547_cqq13_-4.378_cqq11_5.514_cqu1_-8.215_cqd1_4.889_ctq1_5.265_ctu1_10.009_ctd1_3.422'> +6.2781586e+00 </wgt>
<wgt id='eftrwgt41_ctg_0.658_cqq83_-10.403_cqq81_3.211_cqu8_-2.337_cqd8_17.509_ctq8_6.996_ctu8_-1.761_ctd8_-2.923_cqq13_7.515_cqq11_-0.097_cqu1_0.074_cqd1_12.92_ctq1_-6.01_ctu1_-8.626_ctd1_2.326'> +1.1605855e+02 </wgt>
<wgt id='eftrwgt42_ctg_0.239_cqq83_-0.972_cqq81_-1.122_cqu8_-17.342_cqd8_-7.199_ctq8_-12.68_ctu8_1.247_ctd8_17.533_cqq13_-6.465_cqq11_-5.436_cqu1_9.489_cqd1_-0.985_ctq1_8.129_ctu1_-5.418_ctd1_5.104'> +2.4059870e+02 </wgt>
<wgt id='eftrwgt43_ctg_-0.649_cqq83_12.017_cqq81_-8.81_cqu8_-11.947_cqd8_-0.617_ctq8_-8.389_ctu8_-11.126_ctd8_-23.747_cqq13_-2.837_cqq11_5.496_cqu1_4.701_cqd1_4.955_ctq1_2.49_ctu1_2.683_ctd1_-7.631'> +1.1597854e+01 </wgt>
<wgt id='eftrwgt44_ctg_0.171_cqq83_12.009_cqq81_1.908_cqu8_4.651_cqd8_-17.53_ctq8_4.385_ctu8_9.354_ctd8_6.605_cqq13_0.349_cqq11_-3.295_cqu1_-5.85_cqd1_-13.524_ctq1_0.629_ctu1_-6.984_ctd1_13.334'> +9.2454166e+01 </wgt>
<wgt id='eftrwgt45_ctg_1.117_cqq83_-1.134_cqq81_0.846_cqu8_-17.819_cqd8_7.834_ctq8_-1.016_ctu8_17.048_ctd8_-16.169_cqq13_3.138_cqq11_-2.054_cqu1_-10.535_cqd1_-6.766_ctq1_2.47_ctu1_6.02_ctd1_11.267'> +2.2339010e+00 </wgt>
<wgt id='eftrwgt46_ctg_0.852_cqq83_-5.375_cqq81_-1.252_cqu8_-6.421_cqd8_17.384_ctq8_4.252_ctu8_6.891_ctd8_10.51_cqq13_-4.608_cqq11_7.589_cqu1_-6.678_cqd1_11.188_ctq1_-3.189_ctu1_-10.063_ctd1_0.955'> +2.4500652e+01 </wgt>
<wgt id='eftrwgt47_ctg_0.672_cqq83_10.633_cqq81_-10.436_cqu8_3.141_cqd8_5.015_ctq8_-11.403_ctu8_-4.418_ctd8_-1.92_cqq13_0.491_cqq11_-8.212_cqu1_-0.701_cqd1_-0.931_ctq1_5.075_ctu1_5.776_ctd1_-9.187'> +1.1122279e+02 </wgt>
<wgt id='eftrwgt48_ctg_0.097_cqq83_-13.235_cqq81_3.083_cqu8_-6.992_cqd8_-21.927_ctq8_-1.972_ctu8_12.828_ctd8_-23.378_cqq13_1.548_cqq11_-7.292_cqu1_-7.809_cqd1_-3.663_ctq1_-0.091_ctu1_3.906_ctd1_0.689'> +4.8276283e+01 </wgt>
<wgt id='eftrwgt49_ctg_1.029_cqq83_-0.471_cqq81_-7.658_cqu8_-14.403_cqd8_16.435_ctq8_-10.202_ctu8_-12.269_ctd8_-13.394_cqq13_-1.09_cqq11_4.914_cqu1_-4.324_cqd1_0.827_ctq1_-4.544_ctu1_-0.962_ctd1_9.864'> +4.4177247e+01 </wgt>
<wgt id='eftrwgt50_ctg_-0.665_cqq83_-14.242_cqq81_-8.115_cqu8_4.63_cqd8_10.452_ctq8_-13.832_ctu8_-13.909_ctd8_-10.071_cqq13_-2.706_cqq11_1.201_cqu1_0.148_cqd1_-0.781_ctq1_-6.102_ctu1_-6.349_ctd1_6.964'> +7.1699377e+01 </wgt>
<wgt id='eftrwgt51_ctg_-0.787_cqq83_-15.261_cqq81_8.809_cqu8_-2.155_cqd8_-17.025_ctq8_-6.971_ctu8_10.751_ctd8_-10.297_cqq13_-0.617_cqq11_7.049_cqu1_-7.986_cqd1_-2.061_ctq1_0.449_ctu1_6.857_ctd1_-13.813'> +9.9241765e+01 </wgt>
<wgt id='eftrwgt52_ctg_0.862_cqq83_17.48_cqq81_4.698_cqu8_8.08_cqd8_9.692_ctq8_3.485_ctu8_11.755_ctd8_-3.559_cqq13_6.645_cqq11_2.713_cqu1_-8.115_cqd1_8.608_ctq1_-6.273_ctu1_7.111_ctd1_5.866'> +1.4784082e+02 </wgt>
<wgt id='eftrwgt53_ctg_-0.903_cqq83_3.892_cqq81_-1.362_cqu8_-12.339_cqd8_-12.919_ctq8_2.258_ctu8_8.165_ctd8_16.95_cqq13_-4.352_cqq11_1.546_cqu1_7.695_cqd1_11.734_ctq1_2.3_ctu1_9.781_ctd1_1.838'> +2.3834549e+01 </wgt>
<wgt id='eftrwgt54_ctg_-0.522_cqq83_-0.949_cqq81_-0.037_cqu8_14.405_cqd8_-4.088_ctq8_-5.643_ctu8_8.684_ctd8_-21.06_cqq13_-6.966_cqq11_-5.093_cqu1_-4.897_cqd1_2.455_ctq1_-3.435_ctu1_3.57_ctd1_-7.932'> +2.8118286e+02 </wgt>
<wgt id='eftrwgt55_ctg_-0.222_cqq83_1.213_cqq81_10.848_cqu8_-14.188_cqd8_-19.129_ctq8_4.966_ctu8_6.833_ctd8_-10.208_cqq13_6.393_cqq11_2.922_cqu1_9.268_cqd1_9.372_ctq1_3.58_ctu1_5.027_ctd1_13.963'> +1.3326779e+02 </wgt>
<wgt id='eftrwgt56_ctg_-0.064_cqq83_-13.896_cqq81_-9.146_cqu8_-12.936_cqd8_6.184_ctq8_-9.142_ctu8_7.671_ctd8_-23.063_cqq13_-5.638_cqq11_0.314_cqu1_3.549_cqd1_13.313_ctq1_7.463_ctu1_-2.827_ctd1_4.274'> +7.6057082e+01 </wgt>
<wgt id='eftrwgt57_ctg_0.55_cqq83_-0.366_cqq81_13.131_cqu8_-11.082_cqd8_-6.326_ctq8_-1.457_ctu8_-10.801_ctd8_-1.042_cqq13_-6.705_cqq11_-3.081_cqu1_2.128_cqd1_13.722_ctq1_-3.878_ctu1_8.438_ctd1_-10.644'> +3.0761861e+02 </wgt>
<wgt id='eftrwgt58_ctg_-0.739_cqq83_-1.927_cqq81_-4.498_cqu8_-7.655_cqd8_-12.724_ctq8_7.311_ctu8_0.6_ctd8_-24.282_cqq13_7.046_cqq11_-1.157_cqu1_2.74_cqd1_1.196_ctq1_0.456_ctu1_10.57_ctd1_6.47'> +8.1668284e+01 </wgt>
<wgt id='eftrwgt59_ctg_-0.809_cqq83_6.461_cqq81_5.164_cqu8_7.348_cqd8_-10.049_ctq8_-9.039_ctu8_11.156_ctd8_17.765_cqq13_2.406_cqq11_-3.454_cqu1_-8.251_cqd1_3.987_ctq1_-2.608_ctu1_-5.906_ctd1_-13.122'> +4.3697306e+01 </wgt>
<wgt id='eftrwgt60_ctg_0.321_cqq83_5.49_cqq81_9.481_cqu8_6.2_cqd8_6.877_ctq8_-2.766_ctu8_2.591_ctd8_5.007_cqq13_4.948_cqq11_-5.846_cqu1_1.836_cqd1_2.37_ctq1_3.758_ctu1_-2.994_ctd1_-9.755'> +6.3232095e+01 </wgt>
<wgt id='eftrwgt61_ctg_0.309_cqq83_13.504_cqq81_0.142_cqu8_15.303_cqd8_-11.281_ctq8_-13.865_ctu8_10.736_ctd8_-18.349_cqq13_0.658_cqq11_-2.407_cqu1_-8.659_cqd1_5.691_ctq1_0.834_ctu1_-7.918_ctd1_8.27'> +6.3247536e+01 </wgt>
<wgt id='eftrwgt62_ctg_-0.755_cqq83_1.09_cqq81_-2.059_cqu8_14.895_cqd8_0.941_ctq8_-0.117_ctu8_-3.607_ctd8_-7.303_cqq13_2.029_cqq11_-6.951_cqu1_-7.372_cqd1_-8.246_ctq1_-0.626_ctu1_-0.403_ctd1_-6.554'> +4.7868676e+01 </wgt>
<wgt id='eftrwgt63_ctg_-1.189_cqq83_3.274_cqq81_5.97_cqu8_-8.688_cqd8_14.017_ctq8_2.273_ctu8_14.433_ctd8_-19.069_cqq13_-4.403_cqq11_3.367_cqu1_-4.681_cqd1_10.796_ctq1_-4.846_ctu1_1.054_ctd1_-13.006'> +3.4727597e+01 </wgt>
<wgt id='eftrwgt64_ctg_0.949_cqq83_12.237_cqq81_-2.266_cqu8_-10.878_cqd8_-7.642_ctq8_-6.632_ctu8_-5.91_ctd8_22.286_cqq13_-6.42_cqq11_-0.839_cqu1_-9.914_cqd1_11.165_ctq1_5.728_ctu1_-2.834_ctd1_-11.273'> +1.6256232e+02 </wgt>
<wgt id='eftrwgt65_ctg_-1.077_cqq83_6.554_cqq81_-5.771_cqu8_-11.958_cqd8_-5.175_ctq8_6.893_ctu8_-15.271_ctd8_-11.605_cqq13_-2.625_cqq11_5.619_cqu1_-3.062_cqd1_8.844_ctq1_8.759_ctu1_7.743_ctd1_-9.404'> +1.8264231e+01 </wgt>
<wgt id='eftrwgt66_ctg_0.739_cqq83_-0.73_cqq81_-3.942_cqu8_0.197_cqd8_-20.568_ctq8_-3.855_ctu8_3.62_ctd8_-1.663_cqq13_1.279_cqq11_-5.868_cqu1_-1.596_cqd1_4.61_ctq1_-0.985_ctu1_5.278_ctd1_1.935'> +3.4386049e+01 </wgt>
<wgt id='eftrwgt67_ctg_-1.144_cqq83_-9.411_cqq81_11.632_cqu8_13.794_cqd8_19.35_ctq8_-9.734_ctu8_17.462_ctd8_-9.013_cqq13_6.095_cqq11_1.653_cqu1_10.71_cqd1_-11.055_ctq1_7.571_ctu1_0.484_ctd1_-1.685'> +1.0937303e+02 </wgt>
<wgt id='eftrwgt68_ctg_0.408_cqq83_3.73_cqq81_-12.673_cqu8_-15.054_cqd8_23.598_ctq8_0.269_ctu8_8.53_ctd8_-19.396_cqq13_1.648_cqq11_6.789_cqu1_-10.541_cqd1_-5.767_ctq1_-2.558_ctu1_-8.764_ctd1_1.857'> +1.6748619e+02 </wgt>
<wgt id='eftrwgt69_ctg_0.663_cqq83_-13.808_cqq81_11.681_cqu8_8.175_cqd8_23.585_ctq8_-6.295_ctu8_5.707_ctd8_-2.004_cqq13_2.652_cqq11_0.351_cqu1_-4.864_cqd1_13.53_ctq1_-5.642_ctu1_0.492_ctd1_8.029'> +1.4116680e+01 </wgt>
<wgt id='eftrwgt70_ctg_-0.454_cqq83_-0.455_cqq81_-2.236_cqu8_8.99_cqd8_14.139_ctq8_-10.102_ctu8_-6.093_ctd8_-2.425_cqq13_3.095_cqq11_-0.462_cqu1_-1.855_cqd1_11.152_ctq1_2.965_ctu1_0.951_ctd1_-6.03'> +1.6562061e+01 </wgt>
<wgt id='eftrwgt71_ctg_-0.477_cqq83_-16.758_cqq81_13.224_cqu8_13.232_cqd8_-5.763_ctq8_9.379_ctu8_-10.048_ctd8_-23.022_cqq13_4.391_cqq11_-6.178_cqu1_-8.099_cqd1_-8.009_ctq1_-1.03_ctu1_-2.674_ctd1_-1.681'> +5.2850978e+00 </wgt>
<wgt id='eftrwgt72_ctg_0.622_cqq83_2.696_cqq81_-10.207_cqu8_5.957_cqd8_7.886_ctq8_4.197_ctu8_8.121_ctd8_-20.035_cqq13_2.851_cqq11_-6.744_cqu1_-10.799_cqd1_2.202_ctq1_-7.508_ctu1_-1.701_ctd1_8.892'> +2.6746428e+01 </wgt>
<wgt id='eftrwgt73_ctg_-0.493_cqq83_10.355_cqq81_1.302_cqu8_-9.783_cqd8_-15.531_ctq8_-10.402_ctu8_5.144_ctd8_6.559_cqq13_5.572_cqq11_-0.688_cqu1_-7.729_cqd1_4.564_ctq1_-4.037_ctu1_3.296_ctd1_-5.207'> +4.0350029e+01 </wgt>
<wgt id='eftrwgt74_ctg_-1.313_cqq83_-14.474_cqq81_-0.652_cqu8_2.59_cqd8_16.401_ctq8_2.461_ctu8_-12.258_ctd8_-5.822_cqq13_6.708_cqq11_-5.017_cqu1_7.523_cqd1_10.388_ctq1_-3.975_ctu1_-5.142_ctd1_-12.623'> +4.8694103e+01 </wgt>
<wgt id='eftrwgt75_ctg_-0.166_cqq83_14.655_cqq81_-13.165_cqu8_13.182_cqd8_17.65_ctq8_8.035_ctu8_-7.41_ctd8_5.594_cqq13_-1.583_cqq11_4.47_cqu1_6.793_cqd1_9.148_ctq1_6.872_ctu1_4.564_ctd1_-3.17'> +1.5689968e+01 </wgt>
<wgt id='eftrwgt76_ctg_0.607_cqq83_-7.784_cqq81_0.889_cqu8_-5.808_cqd8_-18.52_ctq8_-10.702_ctu8_6.093_ctd8_5.795_cqq13_-4.86_cqq11_6.059_cqu1_5.977_cqd1_-3.82_ctq1_-0.432_ctu1_0.091_ctd1_12.704'> +1.1203908e+01 </wgt>
<wgt id='eftrwgt77_ctg_-0.008_cqq83_-13.549_cqq81_-2.371_cqu8_-17.548_cqd8_17.783_ctq8_-12.818_ctu8_-10.851_ctd8_-11.002_cqq13_-7.936_cqq11_-0.409_cqu1_4.737_cqd1_0.464_ctq1_-0.138_ctu1_-4.15_ctd1_2.286'> +1.0375390e+02 </wgt>
<wgt id='eftrwgt78_ctg_0.693_cqq83_-17.302_cqq81_-6.475_cqu8_7.814_cqd8_3.71_ctq8_7.916_ctu8_-4.439_ctd8_21.712_cqq13_-1.558_cqq11_5.054_cqu1_2.274_cqd1_7.748_ctq1_-4.741_ctu1_4.163_ctd1_-9.021'> +1.4334353e+02 </wgt>
<wgt id='eftrwgt79_ctg_-1.245_cqq83_-11.588_cqq81_7.305_cqu8_-18.227_cqd8_-8.677_ctq8_11.343_ctu8_2.055_ctd8_-10.604_cqq13_4.361_cqq11_6.251_cqu1_4.537_cqd1_-0.734_ctq1_3.998_ctu1_-6.261_ctd1_-5.045'> +2.2913804e+02 </wgt>
<wgt id='eftrwgt80_ctg_-0.18_cqq83_-10.265_cqq81_2.0_cqu8_-7.281_cqd8_10.418_ctq8_-8.392_ctu8_-11.821_ctd8_14.446_cqq13_4.32_cqq11_-7.909_cqu1_-1.266_cqd1_-1.485_ctq1_7.422_ctu1_-9.567_ctd1_-7.015'> +1.5916854e+01 </wgt>
<wgt id='eftrwgt81_ctg_0.953_cqq83_-15.744_cqq81_-8.719_cqu8_4.233_cqd8_5.5_ctq8_9.427_ctu8_-3.148_ctd8_13.913_cqq13_7.844_cqq11_-2.685_cqu1_-10.526_cqd1_-11.474_ctq1_1.94_ctu1_-0.862_ctd1_-11.271'> +2.0379702e+02 </wgt>
<wgt id='eftrwgt82_ctg_0.709_cqq83_-3.094_cqq81_5.584_cqu8_5.962_cqd8_-12.068_ctq8_7.256_ctu8_-14.777_ctd8_-14.389_cqq13_-4.278_cqq11_8.12_cqu1_0.179_cqd1_-1.651_ctq1_-8.145_ctu1_2.242_ctd1_-10.245'> +1.7523004e+01 </wgt>
<wgt id='eftrwgt83_ctg_0.687_cqq83_-1.156_cqq81_3.18_cqu8_-3.335_cqd8_-0.404_ctq8_-5.778_ctu8_6.62_ctd8_-17.153_cqq13_-5.912_cqq11_5.654_cqu1_-1.269_cqd1_8.004_ctq1_-1.868_ctu1_0.845_ctd1_4.292'> +4.0130009e+00 </wgt>
<wgt id='eftrwgt84_ctg_-0.183_cqq83_-0.308_cqq81_0.037_cqu8_14.309_cqd8_-5.805_ctq8_9.893_ctu8_-5.881_ctd8_-1.437_cqq13_-2.017_cqq11_-6.656_cqu1_-1.67_cqd1_-5.98_ctq1_-8.794_ctu1_2.683_ctd1_9.412'> +1.6546666e+02 </wgt>
<wgt id='eftrwgt85_ctg_-0.942_cqq83_15.035_cqq81_13.373_cqu8_-5.07_cqd8_16.019_ctq8_-8.366_ctu8_14.649_ctd8_22.16_cqq13_-4.681_cqq11_6.562_cqu1_-1.143_cqd1_-10.901_ctq1_-6.626_ctu1_7.385_ctd1_-3.635'> +1.5081509e+02 </wgt>
<wgt id='eftrwgt86_ctg_-0.142_cqq83_-2.994_cqq81_12.042_cqu8_8.306_cqd8_-8.182_ctq8_-12.155_ctu8_-0.571_ctd8_11.633_cqq13_-5.051_cqq11_1.519_cqu1_-1.733_cqd1_9.994_ctq1_-6.524_ctu1_4.94_ctd1_2.118'> +7.0491748e+01 </wgt>
<wgt id='eftrwgt87_ctg_0.929_cqq83_16.258_cqq81_4.432_cqu8_11.37_cqd8_2.732_ctq8_-0.209_ctu8_11.238_ctd8_0.002_cqq13_-3.184_cqq11_5.425_cqu1_-3.268_cqd1_11.628_ctq1_2.342_ctu1_-8.392_ctd1_13.454'> +8.2970324e+01 </wgt>
<wgt id='eftrwgt88_ctg_0.663_cqq83_-0.312_cqq81_4.634_cqu8_13.091_cqd8_20.152_ctq8_-11.08_ctu8_10.132_ctd8_8.016_cqq13_2.666_cqq11_-0.154_cqu1_10.589_cqd1_-1.792_ctq1_-0.235_ctu1_-1.608_ctd1_11.236'> +1.0407154e+01 </wgt>
<wgt id='eftrwgt89_ctg_-0.7_cqq83_-8.489_cqq81_-4.248_cqu8_-16.694_cqd8_11.319_ctq8_10.136_ctu8_16.621_ctd8_-12.449_cqq13_5.869_cqq11_0.2_cqu1_7.255_cqd1_6.776_ctq1_-7.91_ctu1_7.893_ctd1_-13.519'> +1.1220135e+02 </wgt>
<wgt id='eftrwgt90_ctg_1.035_cqq83_-14.726_cqq81_-10.269_cqu8_8.762_cqd8_-16.804_ctq8_-12.281_ctu8_-9.071_ctd8_-18.776_cqq13_-0.931_cqq11_-5.226_cqu1_2.228_cqd1_0.749_ctq1_4.043_ctu1_-9.625_ctd1_12.055'> +9.4758054e+01 </wgt>
<wgt id='eftrwgt91_ctg_0.582_cqq83_7.693_cqq81_-11.295_cqu8_-2.266_cqd8_14.634_ctq8_4.883_ctu8_17.79_ctd8_11.844_cqq13_-6.479_cqq11_-4.102_cqu1_2.603_cqd1_-3.346_ctq1_-0.515_ctu1_-6.838_ctd1_-11.52'> +2.0142719e+02 </wgt>
<wgt id='eftrwgt92_ctg_-1.029_cqq83_4.889_cqq81_-11.405_cqu8_13.309_cqd8_-14.979_ctq8_-5.195_ctu8_6.668_ctd8_-24.798_cqq13_5.441_cqq11_-0.506_cqu1_-0.753_cqd1_-13.543_ctq1_-8.67_ctu1_-7.915_ctd1_-0.334'> +5.4522173e+01 </wgt>
<wgt id='eftrwgt93_ctg_1.323_cqq83_-4.365_cqq81_-4.298_cqu8_7.237_cqd8_-13.74_ctq8_-0.526_ctu8_-16.032_ctd8_-23.867_cqq13_-2.711_cqq11_8.204_cqu1_-9.783_cqd1_-13.301_ctq1_5.357_ctu1_-4.585_ctd1_3.272'> +8.9032855e+01 </wgt>
<wgt id='eftrwgt94_ctg_0.923_cqq83_-5.687_cqq81_-9.274_cqu8_-6.946_cqd8_-18.634_ctq8_-2.87_ctu8_-10.48_ctd8_20.825_cqq13_0.818_cqq11_7.594_cqu1_-2.651_cqd1_-8.209_ctq1_-4.375_ctu1_-0.453_ctd1_-11.307'> +2.1332742e+02 </wgt>
<wgt id='eftrwgt95_ctg_-0.353_cqq83_16.887_cqq81_4.599_cqu8_5.271_cqd8_15.7_ctq8_9.777_ctu8_16.081_ctd8_11.396_cqq13_-1.084_cqq11_-4.79_cqu1_-0.778_cqd1_12.085_ctq1_-5.567_ctu1_-7.961_ctd1_2.198'> +2.6089598e+02 </wgt>
<wgt id='eftrwgt96_ctg_0.041_cqq83_-5.923_cqq81_-2.955_cqu8_4.903_cqd8_20.523_ctq8_-10.841_ctu8_-16.659_ctd8_-20.437_cqq13_-0.715_cqq11_3.365_cqu1_7.617_cqd1_-8.653_ctq1_-1.465_ctu1_-1.263_ctd1_-7.434'> +3.3068305e+01 </wgt>
<wgt id='eftrwgt97_ctg_0.464_cqq83_6.456_cqq81_3.991_cqu8_-17.621_cqd8_21.05_ctq8_-3.045_ctu8_-1.74_ctd8_-0.321_cqq13_-0.503_cqq11_-7.685_cqu1_3.634_cqd1_-8.072_ctq1_-8.465_ctu1_4.741_ctd1_-8.716'> +2.2535343e+02 </wgt>
<wgt id='eftrwgt98_ctg_1.109_cqq83_-17.675_cqq81_-12.841_cqu8_-7.769_cqd8_-4.881_ctq8_8.767_ctu8_1.909_ctd8_-17.434_cqq13_5.514_cqq11_4.151_cqu1_-4.537_cqd1_10.377_ctq1_-0.495_ctu1_-9.214_ctd1_-2.18'> +4.6598406e+02 </wgt>
<wgt id='eftrwgt99_ctg_0.407_cqq83_-15.227_cqq81_3.076_cqu8_16.069_cqd8_-14.34_ctq8_-10.144_ctu8_-13.132_ctd8_6.768_cqq13_-2.495_cqq11_-6.097_cqu1_-9.127_cqd1_6.952_ctq1_6.568_ctu1_4.211_ctd1_13.935'> +1.0022739e+02 </wgt>
<wgt id='eftrwgt100_ctg_-0.701_cqq83_-0.048_cqq81_-13.163_cqu8_5.634_cqd8_10.956_ctq8_-0.744_ctu8_7.675_ctd8_11.807_cqq13_5.749_cqq11_-2.151_cqu1_8.431_cqd1_-6.532_ctq1_6.71_ctu1_1.894_ctd1_-1.052'> +7.7728158e+01 </wgt>
<wgt id='eftrwgt101_ctg_-0.35_cqq83_14.955_cqq81_13.247_cqu8_12.366_cqd8_-17.494_ctq8_13.947_ctu8_15.163_ctd8_24.316_cqq13_-3.799_cqq11_-3.202_cqu1_6.22_cqd1_12.06_ctq1_-5.011_ctu1_-3.243_ctd1_-4.236'> +4.0317270e+02 </wgt>
<wgt id='eftrwgt102_ctg_0.556_cqq83_-5.267_cqq81_-10.439_cqu8_2.364_cqd8_0.675_ctq8_-12.861_ctu8_-7.633_ctd8_-19.227_cqq13_7.964_cqq11_-4.314_cqu1_-5.928_cqd1_-4.03_ctq1_5.914_ctu1_5.907_ctd1_11.347'> +9.7850639e+01 </wgt>
<wgt id='eftrwgt103_ctg_0.125_cqq83_-12.646_cqq81_10.46_cqu8_18.952_cqd8_-13.688_ctq8_-9.243_ctu8_-14.143_ctd8_-9.888_cqq13_-8.119_cqq11_3.122_cqu1_8.657_cqd1_7.658_ctq1_-7.962_ctu1_3.664_ctd1_-2.552'> +5.2223179e+01 </wgt>
<wgt id='eftrwgt104_ctg_-0.763_cqq83_-3.804_cqq81_11.607_cqu8_-13.419_cqd8_14.176_ctq8_-9.066_ctu8_-15.02_ctd8_-4.358_cqq13_-1.193_cqq11_-6.481_cqu1_4.998_cqd1_-9.789_ctq1_1.777_ctu1_10.322_ctd1_2.64'> +1.6085674e+02 </wgt>
<wgt id='eftrwgt105_ctg_-1.088_cqq83_12.665_cqq81_-11.087_cqu8_18.548_cqd8_-4.797_ctq8_-2.92_ctu8_2.89_ctd8_13.714_cqq13_6.529_cqq11_2.903_cqu1_9.448_cqd1_-11.012_ctq1_-0.553_ctu1_-10.792_ctd1_7.312'> +1.4954914e+02 </wgt>
<wgt id='eftrwgt106_ctg_-0.66_cqq83_13.87_cqq81_-10.837_cqu8_-12.598_cqd8_7.858_ctq8_-12.118_ctu8_-7.151_ctd8_16.078_cqq13_4.226_cqq11_0.29_cqu1_-10.828_cqd1_12.788_ctq1_7.2_ctu1_2.803_ctd1_-12.185'> +3.6320701e+01 </wgt>
<wgt id='eftrwgt107_ctg_0.987_cqq83_4.124_cqq81_-7.722_cqu8_-17.904_cqd8_-9.465_ctq8_-8.335_ctu8_11.217_ctd8_22.691_cqq13_-5.276_cqq11_2.989_cqu1_7.593_cqd1_-5.045_ctq1_1.607_ctu1_3.552_ctd1_13.817'> +7.4601611e+00 </wgt>
<wgt id='eftrwgt108_ctg_-0.161_cqq83_-2.662_cqq81_-3.151_cqu8_9.405_cqd8_-12.787_ctq8_6.797_ctu8_12.29_ctd8_-20.381_cqq13_6.286_cqq11_-1.665_cqu1_-10.66_cqd1_13.551_ctq1_-0.592_ctu1_-10.77_ctd1_-11.103'> +5.0084431e+01 </wgt>
<wgt id='eftrwgt109_ctg_-0.866_cqq83_17.321_cqq81_-1.402_cqu8_15.303_cqd8_-9.712_ctq8_-2.135_ctu8_4.236_ctd8_-2.625_cqq13_6.154_cqq11_-5.703_cqu1_2.095_cqd1_6.678_ctq1_-8.391_ctu1_-3.925_ctd1_1.624'> +5.9893991e+01 </wgt>
<wgt id='eftrwgt110_ctg_0.155_cqq83_-16.958_cqq81_-11.926_cqu8_-4.429_cqd8_12.271_ctq8_12.349_ctu8_9.754_ctd8_-5.943_cqq13_1.387_cqq11_-2.925_cqu1_8.241_cqd1_-0.988_ctq1_8.274_ctu1_-10.609_ctd1_-7.304'> +1.1753356e+02 </wgt>
<wgt id='eftrwgt111_ctg_-1.065_cqq83_14.73_cqq81_-1.172_cqu8_-15.353_cqd8_0.237_ctq8_10.108_ctu8_4.492_ctd8_24.01_cqq13_-1.328_cqq11_0.667_cqu1_-2.509_cqd1_0.719_ctq1_0.384_ctu1_-8.496_ctd1_-3.168'> +5.5210003e+01 </wgt>
<wgt id='eftrwgt112_ctg_0.963_cqq83_-9.182_cqq81_0.049_cqu8_8.605_cqd8_-14.263_ctq8_8.142_ctu8_-8.43_ctd8_-11.958_cqq13_-2.649_cqq11_1.046_cqu1_6.616_cqd1_7.998_ctq1_1.189_ctu1_-6.255_ctd1_6.95'> +6.8125052e+00 </wgt>
<wgt id='eftrwgt113_ctg_1.026_cqq83_-11.499_cqq81_-5.535_cqu8_17.173_cqd8_3.883_ctq8_-9.651_ctu8_-11.427_ctd8_18.837_cqq13_6.015_cqq11_6.509_cqu1_10.344_cqd1_-2.658_ctq1_-2.985_ctu1_-3.104_ctd1_9.041'> +4.3077244e+02 </wgt>
<wgt id='eftrwgt114_ctg_1.167_cqq83_14.15_cqq81_-2.248_cqu8_-3.57_cqd8_15.163_ctq8_-12.657_ctu8_5.129_ctd8_6.614_cqq13_-6.863_cqq11_-3.391_cqu1_-0.777_cqd1_-2.994_ctq1_1.952_ctu1_-7.447_ctd1_11.847'> +3.0159946e+02 </wgt>
<wgt id='eftrwgt115_ctg_0.982_cqq83_-16.13_cqq81_-2.864_cqu8_-3.251_cqd8_13.648_ctq8_-3.377_ctu8_-15.255_ctd8_-20.505_cqq13_6.864_cqq11_6.065_cqu1_1.403_cqd1_13.412_ctq1_6.891_ctu1_-5.305_ctd1_6.959'> +5.0299680e+02 </wgt>
<wgt id='eftrwgt116_ctg_0.484_cqq83_-5.877_cqq81_-0.844_cqu8_-8.226_cqd8_-12.543_ctq8_-7.938_ctu8_-14.308_ctd8_-16.759_cqq13_3.295_cqq11_-4.935_cqu1_1.553_cqd1_-2.747_ctq1_1.896_ctu1_-2.598_ctd1_1.468'> +4.9155838e+00 </wgt>
<wgt id='eftrwgt117_ctg_-0.766_cqq83_13.005_cqq81_4.278_cqu8_-5.789_cqd8_-2.642_ctq8_1.928_ctu8_-17.627_ctd8_13.206_cqq13_-3.352_cqq11_-4.623_cqu1_1.281_cqd1_-0.353_ctq1_-7.888_ctu1_-2.739_ctd1_-3.691'> +2.8862702e+02 </wgt>
<wgt id='eftrwgt118_ctg_-0.026_cqq83_16.863_cqq81_-3.657_cqu8_-14.653_cqd8_19.452_ctq8_-11.093_ctu8_7.169_ctd8_12.713_cqq13_2.219_cqq11_6.829_cqu1_-1.47_cqd1_13.329_ctq1_-8.726_ctu1_4.506_ctd1_-6.731'> +1.1018435e+02 </wgt>
<wgt id='eftrwgt119_ctg_-0.927_cqq83_14.324_cqq81_12.494_cqu8_-15.766_cqd8_-22.63_ctq8_7.771_ctu8_17.012_ctd8_-4.27_cqq13_-4.263_cqq11_7.096_cqu1_5.583_cqd1_7.465_ctq1_3.841_ctu1_9.204_ctd1_12.312'> +1.3277973e+02 </wgt>
<wgt id='eftrwgt120_ctg_-1.301_cqq83_2.61_cqq81_-0.228_cqu8_-13.019_cqd8_-7.21_ctq8_-10.88_ctu8_-12.7_ctd8_-9.515_cqq13_3.421_cqq11_-0.285_cqu1_-1.252_cqd1_-3.317_ctq1_7.885_ctu1_3.534_ctd1_11.001'> +1.8807856e+01 </wgt>
<wgt id='eftrwgt121_ctg_0.544_cqq83_-11.95_cqq81_-0.044_cqu8_-3.43_cqd8_-3.87_ctq8_-7.539_ctu8_-14.796_ctd8_-19.179_cqq13_3.035_cqq11_-7.307_cqu1_1.661_cqd1_-9.45_ctq1_-2.9_ctu1_7.446_ctd1_-4.846'> +3.1571076e+01 </wgt>
<wgt id='eftrwgt122_ctg_0.077_cqq83_12.997_cqq81_8.942_cqu8_-12.333_cqd8_-21.55_ctq8_8.94_ctu8_12.874_ctd8_-23.03_cqq13_7.882_cqq11_-0.681_cqu1_1.4_cqd1_6.361_ctq1_-0.884_ctu1_-0.375_ctd1_1.214'> +1.1592471e+02 </wgt>
<wgt id='eftrwgt123_ctg_-1.357_cqq83_9.311_cqq81_-6.821_cqu8_-3.271_cqd8_-16.074_ctq8_9.326_ctu8_14.404_ctd8_-2.447_cqq13_3.173_cqq11_-3.404_cqu1_2.525_cqd1_5.494_ctq1_-7.91_ctu1_-0.974_ctd1_4.439'> +6.6090600e+00 </wgt>
<wgt id='eftrwgt124_ctg_-1.223_cqq83_-12.321_cqq81_-7.848_cqu8_-2.265_cqd8_-5.02_ctq8_-13.565_ctu8_-9.074_ctd8_2.046_cqq13_-4.347_cqq11_5.557_cqu1_1.21_cqd1_-2.046_ctq1_-6.903_ctu1_-4.355_ctd1_2.297'> +8.0762296e+01 </wgt>
<wgt id='eftrwgt125_ctg_0.961_cqq83_6.0_cqq81_5.561_cqu8_-3.626_cqd8_-19.356_ctq8_-2.864_ctu8_-0.243_ctd8_23.255_cqq13_-8.112_cqq11_-5.996_cqu1_9.108_cqd1_-10.685_ctq1_-6.426_ctu1_-1.269_ctd1_3.35'> +5.2880914e+02 </wgt>
<wgt id='eftrwgt126_ctg_0.285_cqq83_-16.325_cqq81_0.476_cqu8_-16.347_cqd8_22.521_ctq8_-0.468_ctu8_-2.288_ctd8_22.57_cqq13_-7.864_cqq11_-2.689_cqu1_6.85_cqd1_8.701_ctq1_6.612_ctu1_10.799_ctd1_5.338'> +1.5290983e+02 </wgt>
<wgt id='eftrwgt127_ctg_-1.378_cqq83_-17.314_cqq81_-12.704_cqu8_-6.427_cqd8_-12.718_ctq8_4.311_ctu8_-7.334_ctd8_-24.506_cqq13_-8.01_cqq11_5.874_cqu1_0.468_cqd1_8.191_ctq1_-0.277_ctu1_8.517_ctd1_-7.478'> +1.2722571e+02 </wgt>
<wgt id='eftrwgt128_ctg_1.18_cqq83_-1.471_cqq81_2.433_cqu8_10.198_cqd8_23.306_ctq8_-12.125_ctu8_16.403_ctd8_18.18_cqq13_7.781_cqq11_-2.869_cqu1_-7.593_cqd1_-6.942_ctq1_0.572_ctu1_3.932_ctd1_-1.468'> +3.9461498e+01 </wgt>
<wgt id='eftrwgt129_ctg_0.941_cqq83_-4.592_cqq81_6.49_cqu8_-5.317_cqd8_16.947_ctq8_12.635_ctu8_-5.132_ctd8_22.403_cqq13_2.333_cqq11_-2.444_cqu1_7.188_cqd1_-3.684_ctq1_-5.675_ctu1_-4.027_ctd1_-1.358'> +5.8624327e+00 </wgt>
<wgt id='eftrwgt130_ctg_-0.208_cqq83_-17.622_cqq81_-2.397_cqu8_15.786_cqd8_15.249_ctq8_-1.44_ctu8_10.097_ctd8_-10.056_cqq13_-3.196_cqq11_4.986_cqu1_-0.332_cqd1_-13.619_ctq1_2.563_ctu1_1.892_ctd1_2.648'> +8.8548444e+01 </wgt>
<wgt id='eftrwgt131_ctg_1.247_cqq83_-17.63_cqq81_-10.818_cqu8_5.208_cqd8_0.681_ctq8_12.537_ctu8_-14.866_ctd8_3.091_cqq13_2.337_cqq11_-5.924_cqu1_5.379_cqd1_5.986_ctq1_-5.666_ctu1_10.553_ctd1_1.395'> +9.8671527e+01 </wgt>
<wgt id='eftrwgt132_ctg_-0.801_cqq83_7.262_cqq81_9.212_cqu8_-8.732_cqd8_-8.091_ctq8_-1.906_ctu8_3.948_ctd8_13.123_cqq13_2.692_cqq11_8.195_cqu1_0.96_cqd1_-1.571_ctq1_5.243_ctu1_-1.861_ctd1_-9.371'> +1.8450564e+02 </wgt>
<wgt id='eftrwgt133_ctg_-1.257_cqq83_16.117_cqq81_-9.715_cqu8_-7.571_cqd8_1.07_ctq8_2.477_ctu8_-7.002_ctd8_13.477_cqq13_-0.711_cqq11_7.763_cqu1_-6.041_cqd1_-7.251_ctq1_-2.998_ctu1_-2.904_ctd1_-12.567'> +7.0696519e+01 </wgt>
<wgt id='eftrwgt134_ctg_1.354_cqq83_-7.657_cqq81_-1.021_cqu8_-16.291_cqd8_1.184_ctq8_-2.275_ctu8_16.917_ctd8_-5.942_cqq13_5.969_cqq11_3.289_cqu1_-10.263_cqd1_4.064_ctq1_8.35_ctu1_-0.11_ctd1_0.257'> +2.1521834e+02 </wgt>
<wgt id='eftrwgt135_ctg_-0.715_cqq83_-9.614_cqq81_-10.763_cqu8_9.461_cqd8_21.044_ctq8_0.83_ctu8_16.276_ctd8_17.397_cqq13_7.427_cqq11_-7.592_cqu1_5.575_cqd1_-12.777_ctq1_0.413_ctu1_-0.337_ctd1_5.614'> +6.3980139e+01 </wgt>
<wgt id='eftrwgt136_ctg_1.148_cqq83_9.105_cqq81_7.25_cqu8_15.489_cqd8_-14.113_ctq8_-1.534_ctu8_-4.722_ctd8_-14.085_cqq13_7.64_cqq11_5.644_cqu1_6.289_cqd1_-3.464_ctq1_-4.467_ctu1_10.661_ctd1_-10.103'> +2.5101898e+02 </wgt>
<wgt id='eftrwgt137_ctg_0.519_cqq83_-3.88_cqq81_5.428_cqu8_-11.688_cqd8_12.458_ctq8_5.584_ctu8_4.192_ctd8_-4.494_cqq13_0.22_cqq11_6.429_cqu1_0.379_cqd1_-2.464_ctq1_3.48_ctu1_8.707_ctd1_10.184'> +7.4821091e+01 </wgt>
<wgt id='eftrwgt138_ctg_0.044_cqq83_15.014_cqq81_-2.24_cqu8_-0.07_cqd8_15.723_ctq8_4.233_ctu8_15.378_ctd8_22.326_cqq13_5.742_cqq11_-7.973_cqu1_5.127_cqd1_8.3_ctq1_-2.237_ctu1_-6.818_ctd1_9.184'> +7.3166046e+01 </wgt>
<wgt id='eftrwgt139_ctg_0.536_cqq83_3.108_cqq81_-2.815_cqu8_17.298_cqd8_-20.517_ctq8_-0.558_ctu8_5.522_ctd8_9.105_cqq13_7.706_cqq11_-1.121_cqu1_6.904_cqd1_-8.677_ctq1_0.168_ctu1_4.991_ctd1_3.884'> +7.3120929e+01 </wgt>
<wgt id='eftrwgt140_ctg_-1.222_cqq83_14.489_cqq81_7.936_cqu8_-5.001_cqd8_-7.099_ctq8_0.704_ctu8_-16.077_ctd8_15.282_cqq13_3.777_cqq11_4.884_cqu1_-3.897_cqd1_-3.233_ctq1_-0.56_ctu1_1.21_ctd1_-11.922'> +1.3813918e+02 </wgt>
<wgt id='eftrwgt141_ctg_-0.595_cqq83_-16.264_cqq81_7.534_cqu8_-4.512_cqd8_17.409_ctq8_3.217_ctu8_-8.193_ctd8_8.464_cqq13_-7.686_cqq11_-1.06_cqu1_4.135_cqd1_9.485_ctq1_-2.481_ctu1_4.42_ctd1_3.636'> +1.2174300e+02 </wgt>
<wgt id='eftrwgt142_ctg_1.208_cqq83_4.059_cqq81_6.781_cqu8_-5.717_cqd8_-21.408_ctq8_0.083_ctu8_14.943_ctd8_11.388_cqq13_0.694_cqq11_-5.103_cqu1_-7.402_cqd1_13.43_ctq1_3.406_ctu1_2.945_ctd1_5.188'> +9.7266473e+01 </wgt>
<wgt id='eftrwgt143_ctg_0.787_cqq83_2.859_cqq81_-12.404_cqu8_17.905_cqd8_18.147_ctq8_5.594_ctu8_13.171_ctd8_-8.3_cqq13_-1.709_cqq11_3.715_cqu1_-2.267_cqd1_0.319_ctq1_-2.513_ctu1_-6.093_ctd1_0.66'> +2.3209115e+01 </wgt>
<wgt id='eftrwgt144_ctg_0.369_cqq83_12.119_cqq81_10.451_cqu8_-4.308_cqd8_10.751_ctq8_2.903_ctu8_-16.453_ctd8_12.168_cqq13_-7.8_cqq11_-4.495_cqu1_-7.968_cqd1_-11.778_ctq1_-0.673_ctu1_9.838_ctd1_7.574'> +5.6710254e+02 </wgt>
<wgt id='eftrwgt145_ctg_-0.314_cqq83_-7.538_cqq81_9.523_cqu8_-0.965_cqd8_7.921_ctq8_-3.669_ctu8_-17.137_ctd8_13.302_cqq13_-0.272_cqq11_-1.659_cqu1_-4.888_cqd1_2.565_ctq1_-4.075_ctu1_7.665_ctd1_4.628'> +1.5552111e+01 </wgt>
<wgt id='eftrwgt146_ctg_-0.028_cqq83_17.018_cqq81_4.288_cqu8_2.423_cqd8_9.91_ctq8_-1.803_ctu8_-7.374_ctd8_-22.743_cqq13_1.412_cqq11_1.518_cqu1_-5.031_cqd1_4.621_ctq1_-2.805_ctu1_-7.971_ctd1_2.504'> +8.3806279e+01 </wgt>
<wgt id='eftrwgt147_ctg_0.512_cqq83_9.531_cqq81_-2.016_cqu8_15.155_cqd8_-1.954_ctq8_-13.237_ctu8_1.868_ctd8_5.908_cqq13_-7.773_cqq11_7.257_cqu1_4.489_cqd1_2.963_ctq1_-3.777_ctu1_5.458_ctd1_-6.432'> +2.0058694e+01 </wgt>
<wgt id='eftrwgt148_ctg_-0.482_cqq83_17.097_cqq81_10.457_cqu8_-6.705_cqd8_-13.185_ctq8_-4.371_ctu8_14.509_ctd8_-13.32_cqq13_1.822_cqq11_0.354_cqu1_7.002_cqd1_10.541_ctq1_5.822_ctu1_5.744_ctd1_-13.15'> +1.3790352e+02 </wgt>
<wgt id='eftrwgt149_ctg_-0.905_cqq83_0.86_cqq81_-13.515_cqu8_11.771_cqd8_-1.866_ctq8_13.439_ctu8_0.144_ctd8_13.675_cqq13_-5.569_cqq11_-7.731_cqu1_1.84_cqd1_3.468_ctq1_-5.507_ctu1_1.982_ctd1_-13.061'> +2.8542309e+02 </wgt>
<wgt id='eftrwgt150_ctg_0.0_cqq83_-11.426_cqq81_-6.524_cqu8_-16.088_cqd8_-21.27_ctq8_10.524_ctu8_14.233_ctd8_17.255_cqq13_4.89_cqq11_-4.416_cqu1_4.918_cqd1_-11.767_ctq1_1.268_ctu1_3.231_ctd1_-6.475'> +5.0234265e+01 </wgt>
<wgt id='eftrwgt151_ctg_-0.918_cqq83_-17.499_cqq81_-6.826_cqu8_10.016_cqd8_16.971_ctq8_1.599_ctu8_16.783_ctd8_5.312_cqq13_-2.351_cqq11_-1.209_cqu1_0.269_cqd1_-8.867_ctq1_-7.829_ctu1_-1.326_ctd1_-0.175'> +7.7415561e+01 </wgt>
<wgt id='eftrwgt152_ctg_-0.246_cqq83_8.939_cqq81_-6.847_cqu8_-18.344_cqd8_21.999_ctq8_6.606_ctu8_9.509_ctd8_17.198_cqq13_-1.071_cqq11_7.466_cqu1_-6.387_cqd1_-1.912_ctq1_8.495_ctu1_-3.261_ctd1_8.87'> +7.3961008e+01 </wgt>
<wgt id='eftrwgt153_ctg_0.903_cqq83_-16.714_cqq81_4.491_cqu8_13.339_cqd8_3.836_ctq8_10.658_ctu8_1.169_ctd8_-12.868_cqq13_-4.118_cqq11_5.124_cqu1_5.936_cqd1_-5.521_ctq1_-6.529_ctu1_-3.471_ctd1_-8.961'> +2.1347675e+01 </wgt>
<wgt id='eftrwgt154_ctg_-0.773_cqq83_-11.295_cqq81_11.399_cqu8_12.409_cqd8_-7.958_ctq8_-6.63_ctu8_17.921_ctd8_-4.387_cqq13_-1.075_cqq11_-3.648_cqu1_0.733_cqd1_9.925_ctq1_-5.979_ctu1_6.286_ctd1_-8.945'> +5.1605926e+01 </wgt>
<wgt id='eftrwgt155_ctg_-1.155_cqq83_10.436_cqq81_11.789_cqu8_11.375_cqd8_0.293_ctq8_-12.103_ctu8_-1.324_ctd8_-13.307_cqq13_0.647_cqq11_-1.508_cqu1_4.529_cqd1_-4.847_ctq1_-1.864_ctu1_7.458_ctd1_-2.56'> +1.1942120e+02 </wgt>
<wgt id='eftrwgt156_ctg_1.116_cqq83_-1.502_cqq81_7.154_cqu8_-6.575_cqd8_-19.147_ctq8_-2.196_ctu8_15.471_ctd8_-13.501_cqq13_6.413_cqq11_3.8_cqu1_-1.927_cqd1_3.978_ctq1_3.939_ctu1_-0.696_ctd1_7.298'> +1.6855324e+02 </wgt>
<wgt id='eftrwgt157_ctg_-0.739_cqq83_2.709_cqq81_13.851_cqu8_9.744_cqd8_-15.601_ctq8_-3.406_ctu8_0.534_ctd8_13.826_cqq13_-5.94_cqq11_0.154_cqu1_4.119_cqd1_-0.999_ctq1_7.262_ctu1_1.145_ctd1_4.349'> +1.7285543e+02 </wgt>
<wgt id='eftrwgt158_ctg_-0.16_cqq83_8.752_cqq81_-10.353_cqu8_13.772_cqd8_-19.74_ctq8_1.97_ctu8_-17.022_ctd8_-15.946_cqq13_4.368_cqq11_-3.748_cqu1_-3.331_cqd1_1.681_ctq1_0.02_ctu1_3.467_ctd1_11.988'> +6.2603646e-01 </wgt>
<wgt id='eftrwgt159_ctg_-0.773_cqq83_-5.383_cqq81_11.182_cqu8_14.253_cqd8_22.486_ctq8_4.123_ctu8_16.717_ctd8_16.197_cqq13_7.633_cqq11_3.65_cqu1_3.518_cqd1_4.557_ctq1_0.213_ctu1_-8.115_ctd1_5.813'> +2.0033370e+02 </wgt>
<wgt id='eftrwgt160_ctg_-0.954_cqq83_13.029_cqq81_10.509_cqu8_2.914_cqd8_-7.008_ctq8_3.519_ctu8_-4.882_ctd8_-8.587_cqq13_-4.654_cqq11_6.741_cqu1_-8.034_cqd1_8.536_ctq1_7.776_ctu1_8.243_ctd1_-6.062'> +1.0362184e+02 </wgt>
<wgt id='eftrwgt161_ctg_0.783_cqq83_-0.823_cqq81_-10.667_cqu8_6.458_cqd8_-6.599_ctq8_5.205_ctu8_-17.575_ctd8_-8.783_cqq13_-6.096_cqq11_-7.308_cqu1_-4.219_cqd1_4.937_ctq1_-6.352_ctu1_4.953_ctd1_3.017'> +2.9658903e+02 </wgt>
<wgt id='eftrwgt162_ctg_-0.671_cqq83_16.815_cqq81_-12.317_cqu8_1.448_cqd8_10.899_ctq8_4.606_ctu8_-11.122_ctd8_-10.201_cqq13_4.82_cqq11_3.575_cqu1_-8.572_cqd1_11.857_ctq1_5.276_ctu1_-9.587_ctd1_8.531'> +1.1663219e+02 </wgt>
<wgt id='eftrwgt163_ctg_1.242_cqq83_16.122_cqq81_-8.636_cqu8_-5.852_cqd8_7.335_ctq8_-5.7_ctu8_-13.545_ctd8_24.321_cqq13_5.114_cqq11_-6.63_cqu1_-4.255_cqd1_8.437_ctq1_-6.875_ctu1_9.128_ctd1_2.843'> +3.3607048e+01 </wgt>
<wgt id='eftrwgt164_ctg_1.092_cqq83_-5.055_cqq81_-8.599_cqu8_4.203_cqd8_-7.68_ctq8_-11.588_ctu8_0.276_ctd8_17.336_cqq13_-7.727_cqq11_-5.834_cqu1_-7.894_cqd1_-13.963_ctq1_8.207_ctu1_2.956_ctd1_-11.592'> +2.6196663e+02 </wgt>
<wgt id='eftrwgt165_ctg_0.595_cqq83_4.636_cqq81_-0.11_cqu8_-0.581_cqd8_-20.832_ctq8_-0.558_ctu8_4.659_ctd8_14.601_cqq13_-7.948_cqq11_3.039_cqu1_4.976_cqd1_-0.906_ctq1_-5.244_ctu1_-2.665_ctd1_-11.849'> +7.6867667e+01 </wgt>
<wgt id='eftrwgt166_ctg_1.216_cqq83_5.127_cqq81_1.484_cqu8_12.31_cqd8_15.332_ctq8_-1.18_ctu8_2.062_ctd8_7.64_cqq13_-3.138_cqq11_3.748_cqu1_-2.564_cqd1_-4.289_ctq1_4.03_ctu1_7.302_ctd1_-7.704'> +1.2747115e+01 </wgt>
<wgt id='eftrwgt167_ctg_1.033_cqq83_5.72_cqq81_-1.985_cqu8_-0.401_cqd8_0.76_ctq8_-4.788_ctu8_5.904_ctd8_-7.804_cqq13_5.806_cqq11_-6.292_cqu1_-1.952_cqd1_-8.265_ctq1_2.846_ctu1_-6.057_ctd1_7.749'> +7.8460389e+00 </wgt>
<wgt id='eftrwgt168_ctg_-0.37_cqq83_17.55_cqq81_9.651_cqu8_-15.831_cqd8_-2.866_ctq8_-6.609_ctu8_-14.397_ctd8_5.753_cqq13_5.663_cqq11_-8.112_cqu1_-9.915_cqd1_6.099_ctq1_-0.019_ctu1_-1.021_ctd1_-5.252'> +2.1006573e+02 </wgt>
<wgt id='eftrwgt169_ctg_-1.172_cqq83_17.994_cqq81_-4.282_cqu8_-10.241_cqd8_-2.149_ctq8_-9.811_ctu8_-0.052_ctd8_20.563_cqq13_0.796_cqq11_-3.46_cqu1_8.811_cqd1_-11.665_ctq1_2.613_ctu1_-2.034_ctd1_-11.62'> +7.5980019e+01 </wgt>
<wgt id='eftrwgt170_ctg_-1.173_cqq83_-5.111_cqq81_9.87_cqu8_12.84_cqd8_15.747_ctq8_6.145_ctu8_16.166_ctd8_21.901_cqq13_1.621_cqq11_-4.815_cqu1_-6.967_cqd1_-9.672_ctq1_8.708_ctu1_-3.905_ctd1_5.596'> +3.3480119e+01 </wgt>
<wgt id='eftrwgt171_ctg_-0.487_cqq83_-3.728_cqq81_-2.089_cqu8_-8.617_cqd8_-3.165_ctq8_5.221_ctu8_-6.935_ctd8_-10.922_cqq13_2.93_cqq11_-3.943_cqu1_0.026_cqd1_10.454_ctq1_1.412_ctu1_-4.837_ctd1_4.419'> +2.2121314e+00 </wgt>
<wgt id='eftrwgt172_ctg_0.395_cqq83_8.99_cqq81_-3.002_cqu8_-13.401_cqd8_-8.393_ctq8_6.268_ctu8_10.287_ctd8_3.578_cqq13_-0.326_cqq11_0.491_cqu1_-1.452_cqd1_0.292_ctq1_2.055_ctu1_8.333_ctd1_-11.0'> +1.2882977e+01 </wgt>
<wgt id='eftrwgt173_ctg_-0.268_cqq83_-9.609_cqq81_-10.088_cqu8_-10.258_cqd8_2.411_ctq8_-9.923_ctu8_-12.813_ctd8_-11.549_cqq13_-0.115_cqq11_0.881_cqu1_3.83_cqd1_-7.017_ctq1_-5.831_ctu1_5.916_ctd1_9.799'> +6.9089743e+01 </wgt>
<wgt id='eftrwgt174_ctg_0.0_cqq83_14.255_cqq81_-3.162_cqu8_7.632_cqd8_8.455_ctq8_-10.706_ctu8_12.248_ctd8_-7.818_cqq13_-7.674_cqq11_3.169_cqu1_-10.606_cqd1_10.997_ctq1_7.461_ctu1_-1.024_ctd1_-12.78'> +9.0680281e+01 </wgt>
<wgt id='eftrwgt175_ctg_0.97_cqq83_0.362_cqq81_12.475_cqu8_-6.155_cqd8_12.941_ctq8_-11.631_ctu8_12.793_ctd8_5.998_cqq13_5.415_cqq11_3.61_cqu1_3.086_cqd1_11.222_ctq1_-7.83_ctu1_7.604_ctd1_-6.316'> +1.1056533e+02 </wgt>
<wgt id='eftrwgt176_ctg_-0.671_cqq83_9.217_cqq81_12.675_cqu8_-5.504_cqd8_11.909_ctq8_-13.928_ctu8_3.526_ctd8_12.153_cqq13_6.419_cqq11_-4.462_cqu1_-8.472_cqd1_-6.853_ctq1_-5.497_ctu1_9.273_ctd1_7.938'> +8.6842547e+01 </wgt>
<wgt id='eftrwgt177_ctg_-0.305_cqq83_7.149_cqq81_-4.524_cqu8_-16.678_cqd8_-16.144_ctq8_5.076_ctu8_-17.746_ctd8_16.893_cqq13_4.267_cqq11_2.618_cqu1_4.353_cqd1_8.975_ctq1_4.66_ctu1_3.456_ctd1_-10.007'> +7.9980363e+01 </wgt>
<wgt id='eftrwgt178_ctg_-0.022_cqq83_13.793_cqq81_-0.578_cqu8_13.877_cqd8_-10.596_ctq8_10.476_ctu8_5.651_ctd8_8.781_cqq13_7.781_cqq11_-0.157_cqu1_-3.425_cqd1_10.096_ctq1_-6.687_ctu1_-1.677_ctd1_2.543'> +8.4468029e+01 </wgt>
<wgt id='eftrwgt179_ctg_0.497_cqq83_-6.916_cqq81_13.035_cqu8_-5.975_cqd8_12.419_ctq8_5.679_ctu8_-2.58_ctd8_-17.339_cqq13_-3.741_cqq11_-1.097_cqu1_-5.551_cqd1_-0.983_ctq1_-5.692_ctu1_4.263_ctd1_4.456'> +8.6570300e+01 </wgt>
<wgt id='sm_point'> +8.4663442e-01 </wgt>
<wgt id='1001'> +1.1579678e+02 </wgt>
<wgt id='1002'> +1.0263609e+02 </wgt>
<wgt id='1003'> +1.0263609e+02 </wgt>
<wgt id='1004'> +1.2376926e+02 </wgt>
<wgt id='1005'> +9.8334115e+01 </wgt>
<wgt id='1006'> +9.8190452e+01 </wgt>
<wgt id='1007'> +8.8135502e+01 </wgt>
<wgt id='1008'> +8.8135502e+01 </wgt>
<wgt id='1009'> +1.0490308e+02 </wgt>
<wgt id='1010'> +8.4679101e+01 </wgt>
<wgt id='1011'> +1.3869279e+02 </wgt>
<wgt id='1012'> +1.2109457e+02 </wgt>
<wgt id='1013'> +1.2109457e+02 </wgt>
<wgt id='1014'> +1.4832350e+02 </wgt>
<wgt id='1015'> +1.1563563e+02 </wgt>
<wgt id='1016'> +1.1536422e+02 </wgt>
<wgt id='1017'> +1.0029429e+02 </wgt>
<wgt id='1018'> +1.0029429e+02 </wgt>
<wgt id='1019'> +1.2109457e+02 </wgt>
<wgt id='1020'> +9.6069616e+01 </wgt>
<wgt id='1021'> +9.7823657e+01 </wgt>
<wgt id='1022'> +8.6124556e+01 </wgt>
<wgt id='1023'> +8.6124556e+01 </wgt>
<wgt id='1024'> +1.0263609e+02 </wgt>
<wgt id='1025'> +8.2729057e+01 </wgt>
<wgt id='1026'> +1.3817470e+02 </wgt>
<wgt id='1027'> +1.1833161e+02 </wgt>
<wgt id='1028'> +1.1833161e+02 </wgt>
<wgt id='1029'> +1.4511818e+02 </wgt>
<wgt id='1030'> +1.1297270e+02 </wgt>
<wgt id='1031'> +1.1513107e+02 </wgt>
<wgt id='1032'> +1.0490308e+02 </wgt>
<wgt id='1033'> +1.0490308e+02 </wgt>
<wgt id='1034'> +1.2625577e+02 </wgt>
<wgt id='1035'> +1.0054140e+02 </wgt>
<wgt id='1036'> +9.7625959e+01 </wgt>
<wgt id='1037'> +9.0082208e+01 </wgt>
<wgt id='1038'> +9.0082208e+01 </wgt>
<wgt id='1039'> +1.0701057e+02 </wgt>
<wgt id='1040'> +8.6579878e+01 </wgt>
<wgt id='1041'> +1.3789545e+02 </wgt>
<wgt id='1042'> +1.2376926e+02 </wgt>
<wgt id='1043'> +1.2376926e+02 </wgt>
<wgt id='1044'> +1.5130330e+02 </wgt>
<wgt id='1045'> +1.1823128e+02 </wgt>
<wgt id='1046'> +1.3334000e+02 </wgt>
<wgt id='1047'> +1.0234407e+02 </wgt>
<wgt id='1048'> +1.1579678e+02 </wgt>
<wgt id='1049'> +1.1572996e+02 </wgt>
<wgt id='1050'> +1.1557111e+02 </wgt>
<wgt id='1051'> +1.1560862e+02 </wgt>
<wgt id='1052'> +1.1562655e+02 </wgt>
<wgt id='1053'> +1.1564636e+02 </wgt>
<wgt id='1054'> +1.1525668e+02 </wgt>
<wgt id='1055'> +1.1532841e+02 </wgt>
<wgt id='1056'> +1.1503484e+02 </wgt>
<wgt id='1057'> +1.1652807e+02 </wgt>
<wgt id='1058'> +1.1522791e+02 </wgt>
<wgt id='1059'> +1.1617556e+02 </wgt>
<wgt id='1060'> +1.1541171e+02 </wgt>
<wgt id='1061'> +1.1628642e+02 </wgt>
<wgt id='1062'> +1.1564106e+02 </wgt>
<wgt id='1063'> +1.1720906e+02 </wgt>
<wgt id='1064'> +1.1538723e+02 </wgt>
<wgt id='1065'> +1.1558835e+02 </wgt>
<wgt id='1066'> +1.1475179e+02 </wgt>
<wgt id='1067'> +1.1626803e+02 </wgt>
<wgt id='1068'> +1.1526993e+02 </wgt>
<wgt id='1069'> +1.1494116e+02 </wgt>
<wgt id='1070'> +1.1653294e+02 </wgt>
<wgt id='1071'> +1.1525655e+02 </wgt>
<wgt id='1072'> +1.1494262e+02 </wgt>
<wgt id='1073'> +1.1566550e+02 </wgt>
<wgt id='1074'> +1.1577991e+02 </wgt>
<wgt id='1075'> +1.1620693e+02 </wgt>
<wgt id='1076'> +1.1620020e+02 </wgt>
<wgt id='1077'> +1.1699301e+02 </wgt>
<wgt id='1078'> +1.1615513e+02 </wgt>
<wgt id='1079'> +1.1755328e+02 </wgt>
<wgt id='1080'> +1.1557946e+02 </wgt>
<wgt id='1081'> +1.1594034e+02 </wgt>
<wgt id='1082'> +1.1617008e+02 </wgt>
<wgt id='1083'> +1.1554455e+02 </wgt>
<wgt id='1084'> +1.1503736e+02 </wgt>
<wgt id='1085'> +1.1670809e+02 </wgt>
<wgt id='1086'> +1.1573859e+02 </wgt>
<wgt id='1087'> +1.1589454e+02 </wgt>
<wgt id='1088'> +1.1590360e+02 </wgt>
<wgt id='1089'> +1.1578993e+02 </wgt>
<wgt id='1090'> +1.1546852e+02 </wgt>
<wgt id='1091'> +1.1600824e+02 </wgt>
<wgt id='1092'> +1.1571458e+02 </wgt>
<wgt id='1093'> +1.1575171e+02 </wgt>
<wgt id='1094'> +1.1570956e+02 </wgt>
<wgt id='1095'> +1.1559220e+02 </wgt>
<wgt id='1096'> +1.1588049e+02 </wgt>
<wgt id='1097'> +1.1521435e+02 </wgt>
<wgt id='1098'> +1.1580585e+02 </wgt>
<wgt id='1099'> +1.1592067e+02 </wgt>
<wgt id='1100'> +1.1567895e+02 </wgt>
<wgt id='1101'> +1.1545362e+02 </wgt>
<wgt id='1102'> +1.1593768e+02 </wgt>
<wgt id='1103'> +1.1597333e+02 </wgt>
<wgt id='1104'> +1.1608009e+02 </wgt>
<wgt id='1105'> +1.1630782e+02 </wgt>
<wgt id='1106'> +1.1587459e+02 </wgt>
<wgt id='1107'> +1.1599830e+02 </wgt>
<wgt id='1108'> +1.1593051e+02 </wgt>
<wgt id='1109'> +1.1586572e+02 </wgt>
<wgt id='1110'> +1.1551788e+02 </wgt>
<wgt id='1111'> +1.1573005e+02 </wgt>
<wgt id='1112'> +1.1583111e+02 </wgt>
<wgt id='1113'> +1.1581371e+02 </wgt>
<wgt id='1114'> +1.1577499e+02 </wgt>
<wgt id='1115'> +1.1578747e+02 </wgt>
<wgt id='1116'> +1.1585326e+02 </wgt>
<wgt id='1117'> +1.1574511e+02 </wgt>
<wgt id='1118'> +1.1568929e+02 </wgt>
<wgt id='1119'> +1.1580082e+02 </wgt>
<wgt id='1120'> +1.1572150e+02 </wgt>
<wgt id='1121'> +1.1605986e+02 </wgt>
<wgt id='1122'> +1.1583951e+02 </wgt>
<wgt id='1123'> +1.1595772e+02 </wgt>
<wgt id='1124'> +1.1574960e+02 </wgt>
<wgt id='1125'> +1.1578177e+02 </wgt>
<wgt id='1126'> +1.1590045e+02 </wgt>
<wgt id='1127'> +1.1572404e+02 </wgt>
<wgt id='1128'> +1.1582598e+02 </wgt>
<wgt id='1129'> +1.1581317e+02 </wgt>
<wgt id='1130'> +1.1588692e+02 </wgt>
<wgt id='1131'> +1.1584027e+02 </wgt>
<wgt id='1132'> +1.1592652e+02 </wgt>
<wgt id='1133'> +1.1584629e+02 </wgt>
<wgt id='1134'> +1.1553877e+02 </wgt>
<wgt id='1135'> +1.1584555e+02 </wgt>
<wgt id='1136'> +1.1570749e+02 </wgt>
<wgt id='1137'> +1.1590856e+02 </wgt>
<wgt id='1138'> +1.1587185e+02 </wgt>
<wgt id='1139'> +1.1585350e+02 </wgt>
<wgt id='1140'> +1.1594910e+02 </wgt>
<wgt id='1141'> +1.1581800e+02 </wgt>
<wgt id='1142'> +1.1586767e+02 </wgt>
<wgt id='1143'> +1.1578037e+02 </wgt>
<wgt id='1144'> +1.1588685e+02 </wgt>
<wgt id='1145'> +1.1579030e+02 </wgt>
<wgt id='1146'> +1.1580234e+02 </wgt>
<wgt id='1147'> +1.1582726e+02 </wgt>
<wgt id='1148'> +1.1579678e+02 </wgt>
<wgt id='1149'> +1.1075980e+02 </wgt>
<wgt id='1150'> +1.2145741e+02 </wgt>
<wgt id='1151'> +1.1579678e+02 </wgt>
<wgt id='1152'> +1.3234709e+02 </wgt>
<wgt id='1153'> +1.1868641e+02 </wgt>
<wgt id='1154'> +1.1875889e+02 </wgt>
<wgt id='1155'> +1.1682055e+02 </wgt>
<wgt id='1156'> +1.1066632e+02 </wgt>
<wgt id='1157'> +1.1860363e+02 </wgt>
<wgt id='1158'> +1.1759441e+02 </wgt>
<wgt id='1159'> +1.1320944e+02 </wgt>
<wgt id='1160'> +1.1095449e+02 </wgt>
<wgt id='1161'> +1.0677883e+02 </wgt>
<wgt id='1162'> +1.1503983e+02 </wgt>
<wgt id='1163'> +1.1225482e+02 </wgt>
<wgt id='1164'> +1.1198176e+02 </wgt>
<wgt id='1165'> +1.1961472e+02 </wgt>
<wgt id='1166'> +1.1815668e+02 </wgt>
<wgt id='1167'> +1.1379335e+02 </wgt>
<wgt id='1168'> +1.1718273e+02 </wgt>
<wgt id='1169'> +1.1401796e+02 </wgt>
<wgt id='1170'> +1.1531044e+02 </wgt>
<wgt id='1171'> +1.0705942e+02 </wgt>
<wgt id='1172'> +1.1961810e+02 </wgt>
<wgt id='1173'> +1.2175072e+02 </wgt>
<wgt id='1174'> +1.1883866e+02 </wgt>
<wgt id='1175'> +1.1390678e+02 </wgt>
<wgt id='1176'> +1.1588112e+02 </wgt>
<wgt id='1177'> +1.2103666e+02 </wgt>
<wgt id='1178'> +1.1693417e+02 </wgt>
<wgt id='1179'> +1.1573018e+02 </wgt>
<wgt id='1180'> +1.1479580e+02 </wgt>
<wgt id='1181'> +1.1624735e+02 </wgt>
<wgt id='1182'> +1.2046745e+02 </wgt>
<wgt id='1183'> +1.1509691e+02 </wgt>
<wgt id='1184'> +1.2172879e+02 </wgt>
<wgt id='1185'> +1.1091072e+02 </wgt>
<wgt id='1186'> +1.1750985e+02 </wgt>
<wgt id='1187'> +1.2039251e+02 </wgt>
<wgt id='1188'> +1.1537820e+02 </wgt>
<wgt id='1189'> +1.1267647e+02 </wgt>
<wgt id='1190'> +1.1541417e+02 </wgt>
<wgt id='1191'> +1.1894364e+02 </wgt>
<wgt id='1192'> +1.1710832e+02 </wgt>
<wgt id='1193'> +1.1622457e+02 </wgt>
<wgt id='1194'> +1.1674464e+02 </wgt>
<wgt id='1195'> +1.1860089e+02 </wgt>
<wgt id='1196'> +1.1835594e+02 </wgt>
<wgt id='1197'> +1.1768617e+02 </wgt>
<wgt id='1198'> +1.1754950e+02 </wgt>
<wgt id='1199'> +1.1182911e+02 </wgt>
<wgt id='1200'> +1.1759637e+02 </wgt>
<wgt id='1201'> +1.1234759e+02 </wgt>
<wgt id='1202'> +1.1422343e+02 </wgt>
<wgt id='1203'> +1.1532851e+02 </wgt>
<wgt id='1204'> +1.1479331e+02 </wgt>
<wgt id='1205'> +1.2069416e+02 </wgt>
<wgt id='1206'> +1.2226437e+02 </wgt>
<wgt id='1207'> +1.1657644e+02 </wgt>
<wgt id='1208'> +1.1944395e+02 </wgt>
<wgt id='1209'> +1.1720618e+02 </wgt>
<wgt id='1210'> +1.1534610e+02 </wgt>
<wgt id='1211'> +1.2149904e+02 </wgt>
<wgt id='1212'> +1.1734519e+02 </wgt>
<wgt id='1213'> +1.1290490e+02 </wgt>
<wgt id='1214'> +1.1414987e+02 </wgt>
<wgt id='1215'> +1.1322211e+02 </wgt>
<wgt id='1216'> +1.1738458e+02 </wgt>
<wgt id='1217'> +1.1764888e+02 </wgt>
<wgt id='1218'> +1.1910484e+02 </wgt>
<wgt id='1219'> +1.1598695e+02 </wgt>
<wgt id='1220'> +1.1657632e+02 </wgt>
<wgt id='1221'> +1.1360856e+02 </wgt>
<wgt id='1222'> +1.1382640e+02 </wgt>
<wgt id='1223'> +1.0882495e+02 </wgt>
<wgt id='1224'> +1.0786582e+02 </wgt>
<wgt id='1225'> +1.0954046e+02 </wgt>
<wgt id='1226'> +1.0820708e+02 </wgt>
<wgt id='1227'> +1.2235594e+02 </wgt>
<wgt id='1228'> +1.1253431e+02 </wgt>
<wgt id='1229'> +1.1854002e+02 </wgt>
<wgt id='1230'> +1.1363529e+02 </wgt>
<wgt id='1231'> +1.1368649e+02 </wgt>
<wgt id='1232'> +1.1832954e+02 </wgt>
<wgt id='1233'> +1.1379335e+02 </wgt>
<wgt id='1234'> +1.1197209e+02 </wgt>
<wgt id='1235'> +1.1309668e+02 </wgt>
<wgt id='1236'> +1.1706879e+02 </wgt>
<wgt id='1237'> +1.1899510e+02 </wgt>
<wgt id='1238'> +1.1371203e+02 </wgt>
<wgt id='1239'> +1.1581117e+02 </wgt>
<wgt id='1240'> +1.0161220e+02 </wgt>
<wgt id='1241'> +1.1523198e+02 </wgt>
<wgt id='1242'> +1.1889701e+02 </wgt>
<wgt id='1243'> +1.0841475e+02 </wgt>
<wgt id='1244'> +1.1188424e+02 </wgt>
<wgt id='1245'> +1.1302802e+02 </wgt>
<wgt id='1246'> +1.1681723e+02 </wgt>
<wgt id='1247'> +1.1842089e+02 </wgt>
<wgt id='1248'> +1.1830981e+02 </wgt>
<wgt id='1249'> +1.1662046e+02 </wgt>
<wgt id='1250'> +1.2032420e+02 </wgt>
<wgt id='1251'> +1.1772012e+02 </wgt>
<wgt id='1252'> +1.1601869e+02 </wgt>
<wgt id='1253'> +1.1596993e+02 </wgt>
<wgt id='1254'> +1.1614243e+02 </wgt>
<wgt id='1255'> +1.1598693e+02 </wgt>
<wgt id='1256'> +1.1618047e+02 </wgt>
<wgt id='1257'> +1.1615498e+02 </wgt>
<wgt id='1258'> +1.1611309e+02 </wgt>
<wgt id='1259'> +1.1593902e+02 </wgt>
<wgt id='1260'> +1.1613194e+02 </wgt>
<wgt id='1261'> +1.1659967e+02 </wgt>
<wgt id='1262'> +1.1562883e+02 </wgt>
<wgt id='1263'> +1.1567106e+02 </wgt>
<wgt id='1264'> +1.1641262e+02 </wgt>
<wgt id='1265'> +1.1579303e+02 </wgt>
<wgt id='1266'> +1.1716314e+02 </wgt>
<wgt id='1267'> +1.1624294e+02 </wgt>
<wgt id='1268'> +1.1681180e+02 </wgt>
<wgt id='1269'> +1.1568622e+02 </wgt>
<wgt id='1270'> +1.1555559e+02 </wgt>
<wgt id='1271'> +1.1621177e+02 </wgt>
<wgt id='1272'> +1.1607196e+02 </wgt>
<wgt id='1273'> +1.1666302e+02 </wgt>
<wgt id='1274'> +1.1650125e+02 </wgt>
<wgt id='1275'> +1.1512120e+02 </wgt>
<wgt id='1276'> +1.1588668e+02 </wgt>
<wgt id='1277'> +1.1633009e+02 </wgt>
<wgt id='1278'> +1.1508975e+02 </wgt>
<wgt id='1279'> +1.1651443e+02 </wgt>
<wgt id='1280'> +1.1658945e+02 </wgt>
<wgt id='1281'> +1.1452356e+02 </wgt>
<wgt id='1282'> +1.1444785e+02 </wgt>
<wgt id='1283'> +1.1649393e+02 </wgt>
<wgt id='1284'> +1.1634346e+02 </wgt>
<wgt id='1285'> +1.1624422e+02 </wgt>
<wgt id='1286'> +1.1589934e+02 </wgt>
<wgt id='1287'> +1.1655264e+02 </wgt>
<wgt id='1288'> +1.1623821e+02 </wgt>
<wgt id='1289'> +1.1589184e+02 </wgt>
<wgt id='1290'> +1.1630503e+02 </wgt>
<wgt id='1291'> +1.1584962e+02 </wgt>
<wgt id='1292'> +1.1592033e+02 </wgt>
<wgt id='1293'> +1.1597346e+02 </wgt>
<wgt id='1294'> +1.1598335e+02 </wgt>
<wgt id='1295'> +1.1623114e+02 </wgt>
<wgt id='1296'> +1.1609656e+02 </wgt>
<wgt id='1297'> +1.1614521e+02 </wgt>
<wgt id='1298'> +1.1620069e+02 </wgt>
<wgt id='1299'> +1.1594873e+02 </wgt>
<wgt id='1300'> +1.1642135e+02 </wgt>
<wgt id='1301'> +1.1593298e+02 </wgt>
<wgt id='1302'> +1.1617365e+02 </wgt>
<wgt id='1303'> +1.1633908e+02 </wgt>
<wgt id='1304'> +1.1606578e+02 </wgt>
<wgt id='1305'> +1.1615850e+02 </wgt>
<wgt id='1306'> +1.1627375e+02 </wgt>
<wgt id='1307'> +1.1589690e+02 </wgt>
<wgt id='1308'> +1.1575975e+02 </wgt>
<wgt id='1309'> +1.1615525e+02 </wgt>
<wgt id='1310'> +1.1602762e+02 </wgt>
<wgt id='1311'> +1.1607791e+02 </wgt>
<wgt id='1312'> +1.1629470e+02 </wgt>
<wgt id='1313'> +1.1610083e+02 </wgt>
<wgt id='1314'> +1.1606665e+02 </wgt>
<wgt id='1315'> +1.1566238e+02 </wgt>
<wgt id='1316'> +1.1545529e+02 </wgt>
<wgt id='1317'> +1.1614990e+02 </wgt>
<wgt id='1318'> +1.1624133e+02 </wgt>
<wgt id='1319'> +1.1600037e+02 </wgt>
<wgt id='1320'> +1.1630966e+02 </wgt>
<wgt id='1321'> +1.1618495e+02 </wgt>
<wgt id='1322'> +1.1587226e+02 </wgt>
<wgt id='1323'> +1.1582990e+02 </wgt>
<wgt id='1324'> +1.1618647e+02 </wgt>
<wgt id='1325'> +1.1610149e+02 </wgt>
<wgt id='1326'> +1.1595052e+02 </wgt>
<wgt id='1327'> +1.1593992e+02 </wgt>
<wgt id='1328'> +1.1573322e+02 </wgt>
<wgt id='1329'> +1.1593796e+02 </wgt>
<wgt id='1330'> +1.1625764e+02 </wgt>
<wgt id='1331'> +1.1588514e+02 </wgt>
<wgt id='1332'> +1.1620384e+02 </wgt>
<wgt id='1333'> +1.1612249e+02 </wgt>
<wgt id='1334'> +1.1601563e+02 </wgt>
<wgt id='1335'> +1.1615356e+02 </wgt>
<wgt id='1336'> +1.1593908e+02 </wgt>
<wgt id='1337'> +1.1592707e+02 </wgt>
<wgt id='1338'> +1.1606489e+02 </wgt>
<wgt id='1339'> +1.1586718e+02 </wgt>
<wgt id='1340'> +1.1581237e+02 </wgt>
<wgt id='1341'> +1.1596035e+02 </wgt>
<wgt id='1342'> +1.1584125e+02 </wgt>
<wgt id='1343'> +1.1591725e+02 </wgt>
<wgt id='1344'> +1.1599566e+02 </wgt>
<wgt id='1345'> +1.1600735e+02 </wgt>
<wgt id='1346'> +1.1594875e+02 </wgt>
<wgt id='1347'> +1.1591073e+02 </wgt>
<wgt id='1348'> +1.1608103e+02 </wgt>
<wgt id='1349'> +1.1608203e+02 </wgt>
<wgt id='1350'> +1.1605400e+02 </wgt>
<wgt id='1351'> +1.1605596e+02 </wgt>
<wgt id='1352'> +1.1595590e+02 </wgt>
<wgt id='1353'> +1.1075980e+02 </wgt>
<wgt id='1354'> +1.2145741e+02 </wgt>
<wgt id='1355'> +9.1944104e+01 </wgt>
<wgt id='1356'> +9.6344606e+01 </wgt>
<wgt id='1357'> +1.0169665e+02 </wgt>
<wgt id='1358'> +1.0655673e+02 </wgt>
<wgt id='1359'> +1.1337255e+02 </wgt>
<wgt id='1360'> +1.1833194e+02 </wgt>
<wgt id='1361'> +1.2644447e+02 </wgt>
<wgt id='1362'> +1.3159297e+02 </wgt>
<wgt id='1363'> +1.1522547e+02 </wgt>
<wgt id='1364'> +1.1522922e+02 </wgt>
<wgt id='1365'> +1.1521007e+02 </wgt>
<wgt id='1366'> +1.1520261e+02 </wgt>
<wgt id='1367'> +1.1521906e+02 </wgt>
<wgt id='1368'> +1.1528897e+02 </wgt>
<wgt id='1369'> +1.1522948e+02 </wgt>
<wgt id='1370'> +1.1537386e+02 </wgt>
<wgt id='1371'> +1.1513225e+02 </wgt>
<wgt id='1372'> +1.1551586e+02 </wgt>
<wgt id='1373'> +1.1477986e+02 </wgt>
<wgt id='1374'> +1.1516581e+02 </wgt>
<wgt id='1375'> +1.1508656e+02 </wgt>
<wgt id='1376'> +1.1539106e+02 </wgt>
<wgt id='1377'> +1.1592211e+02 </wgt>
<wgt id='1378'> +1.1451865e+02 </wgt>
<wgt id='1379'> +1.1548064e+02 </wgt>
<wgt id='1380'> +1.1492307e+02 </wgt>
<wgt id='1381'> +1.1535802e+02 </wgt>
<wgt id='1382'> +1.1497603e+02 </wgt>
<wgt id='1383'> +1.1447270e+02 </wgt>
<wgt id='1384'> +1.1598065e+02 </wgt>
<wgt id='1385'> +1.1546812e+02 </wgt>
<wgt id='1386'> +1.1559625e+02 </wgt>
<wgt id='1387'> +1.1532592e+02 </wgt>
<wgt id='1388'> +1.1444954e+02 </wgt>
<wgt id='1389'> +1.1500565e+02 </wgt>
<wgt id='1390'> +1.1545115e+02 </wgt>
<wgt id='1391'> +1.1573294e+02 </wgt>
<wgt id='1392'> +1.1564104e+02 </wgt>
<wgt id='1393'> +1.1331087e+02 </wgt>
<wgt id='1394'> +1.1547777e+02 </wgt>
<wgt id='1395'> +1.1473439e+02 </wgt>
<wgt id='1396'> +1.1606525e+02 </wgt>
<wgt id='1397'> +1.1513088e+02 </wgt>
<wgt id='1398'> +1.1515557e+02 </wgt>
<wgt id='1399'> +1.1480071e+02 </wgt>
<wgt id='1400'> +1.1432941e+02 </wgt>
<wgt id='1401'> +1.1481041e+02 </wgt>
<wgt id='1402'> +1.1510706e+02 </wgt>
<wgt id='1403'> +1.1508587e+02 </wgt>
<wgt id='1404'> +1.1483681e+02 </wgt>
<wgt id='1405'> +1.1516568e+02 </wgt>
<wgt id='1406'> +1.1514678e+02 </wgt>
<wgt id='1407'> +1.1490814e+02 </wgt>
<wgt id='1408'> +1.1514551e+02 </wgt>
<wgt id='1409'> +1.1500809e+02 </wgt>
<wgt id='1410'> +1.1512573e+02 </wgt>
<wgt id='1411'> +1.1544863e+02 </wgt>
<wgt id='1412'> +1.1528966e+02 </wgt>
<wgt id='1413'> +1.1530429e+02 </wgt>
<wgt id='1414'> +1.1561949e+02 </wgt>
<wgt id='1415'> +1.1533752e+02 </wgt>
<wgt id='1416'> +1.1512938e+02 </wgt>
<wgt id='1417'> +1.1520367e+02 </wgt>
<wgt id='1418'> +1.1508096e+02 </wgt>
<wgt id='1419'> +1.1549430e+02 </wgt>
<wgt id='1420'> +1.1514804e+02 </wgt>
<wgt id='1421'> +1.1522647e+02 </wgt>
<wgt id='1422'> +1.1543427e+02 </wgt>
<wgt id='1423'> +1.1526207e+02 </wgt>
<wgt id='1424'> +1.1516300e+02 </wgt>
<wgt id='1425'> +1.1510016e+02 </wgt>
<wgt id='1426'> +1.1537943e+02 </wgt>
<wgt id='1427'> +1.1505091e+02 </wgt>
<wgt id='1428'> +1.1518591e+02 </wgt>
<wgt id='1429'> +1.1539209e+02 </wgt>
<wgt id='1430'> +1.1493419e+02 </wgt>
<wgt id='1431'> +1.1517433e+02 </wgt>
<wgt id='1432'> +1.1526781e+02 </wgt>
<wgt id='1433'> +1.1454542e+02 </wgt>
<wgt id='1434'> +1.1512267e+02 </wgt>
<wgt id='1435'> +1.1511787e+02 </wgt>
<wgt id='1436'> +1.1500118e+02 </wgt>
<wgt id='1437'> +1.1565362e+02 </wgt>
<wgt id='1438'> +1.1506156e+02 </wgt>
<wgt id='1439'> +1.1533379e+02 </wgt>
<wgt id='1440'> +1.1504529e+02 </wgt>
<wgt id='1441'> +1.1522847e+02 </wgt>
<wgt id='1442'> +1.1528821e+02 </wgt>
<wgt id='1443'> +1.1539637e+02 </wgt>
<wgt id='1444'> +1.1527139e+02 </wgt>
<wgt id='1445'> +1.1512347e+02 </wgt>
<wgt id='1446'> +1.1538929e+02 </wgt>
<wgt id='1447'> +1.1512459e+02 </wgt>
<wgt id='1448'> +1.1523496e+02 </wgt>
<wgt id='1449'> +1.1525936e+02 </wgt>
<wgt id='1450'> +1.1515528e+02 </wgt>
<wgt id='1451'> +1.1526796e+02 </wgt>
<wgt id='1452'> +1.1498871e+02 </wgt>
<wgt id='1453'> +1.1540663e+02 </wgt>
<wgt id='1454'> +1.1518757e+02 </wgt>
<wgt id='1455'> +1.1519111e+02 </wgt>
<wgt id='1456'> +1.1534482e+02 </wgt>
<wgt id='1457'> +1.1507148e+02 </wgt>
<wgt id='1458'> +1.1529145e+02 </wgt>
<wgt id='1459'> +1.1526237e+02 </wgt>
<wgt id='1460'> +1.1520217e+02 </wgt>
<wgt id='1461'> +1.1516010e+02 </wgt>
<wgt id='1462'> +1.1528599e+02 </wgt>
<wgt id='1463'> +1.1520322e+02 </wgt>
<wgt id='1464'> +1.1030086e+02 </wgt>
<wgt id='1465'> +1.2048418e+02 </wgt>
<wgt id='1466'> +1.1245720e+02 </wgt>
<wgt id='1467'> +1.1203454e+02 </wgt>
<wgt id='1468'> +1.1181948e+02 </wgt>
<wgt id='1469'> +1.1143360e+02 </wgt>
<wgt id='1470'> +1.1221084e+02 </wgt>
<wgt id='1471'> +1.1291377e+02 </wgt>
<wgt id='1472'> +1.1122797e+02 </wgt>
<wgt id='1473'> +1.1162259e+02 </wgt>
<wgt id='1474'> +1.1223814e+02 </wgt>
<wgt id='1475'> +1.1311888e+02 </wgt>
<wgt id='1476'> +1.1192293e+02 </wgt>
<wgt id='1477'> +1.1330288e+02 </wgt>
<wgt id='1478'> +1.1037557e+02 </wgt>
<wgt id='1479'> +1.1207781e+02 </wgt>
<wgt id='1480'> +1.1262548e+02 </wgt>
<wgt id='1481'> +1.1254418e+02 </wgt>
<wgt id='1482'> +1.1169535e+02 </wgt>
<wgt id='1483'> +1.1369129e+02 </wgt>
<wgt id='1484'> +1.1117044e+02 </wgt>
<wgt id='1485'> +1.1330819e+02 </wgt>
<wgt id='1486'> +1.1160596e+02 </wgt>
<wgt id='1487'> +1.1166209e+02 </wgt>
<wgt id='1488'> +1.1291816e+02 </wgt>
<wgt id='1489'> +1.1175566e+02 </wgt>
<wgt id='1490'> +1.1318967e+02 </wgt>
<wgt id='1491'> +1.1331604e+02 </wgt>
<wgt id='1492'> +1.1176069e+02 </wgt>
<wgt id='1493'> +1.1122368e+02 </wgt>
<wgt id='1494'> +1.1450508e+02 </wgt>
<wgt id='1495'> +1.1221869e+02 </wgt>
<wgt id='1496'> +1.1259369e+02 </wgt>
<wgt id='1497'> +1.1362307e+02 </wgt>
<wgt id='1498'> +1.1061941e+02 </wgt>
<wgt id='1499'> +1.1260729e+02 </wgt>
<wgt id='1500'> +1.1233780e+02 </wgt>
<wgt id='1501'> +1.1461496e+02 </wgt>
<wgt id='1502'> +1.1067443e+02 </wgt>
<wgt id='1503'> +1.1623283e+02 </wgt>
<wgt id='1504'> +1.0831878e+02 </wgt>
<wgt id='1505'> +1.1549396e+02 </wgt>
<wgt id='1506'> +1.0905708e+02 </wgt>
<wgt id='1507'> +1.1315728e+02 </wgt>
<wgt id='1508'> +1.1234167e+02 </wgt>
<wgt id='1509'> +1.1331841e+02 </wgt>
<wgt id='1510'> +1.1126527e+02 </wgt>
<wgt id='1511'> +1.1092303e+02 </wgt>
<wgt id='1512'> +1.1347451e+02 </wgt>
<wgt id='1513'> +1.1115256e+02 </wgt>
<wgt id='1514'> +1.1355812e+02 </wgt>
<wgt id='1515'> +1.1298677e+02 </wgt>
<wgt id='1516'> +1.1183870e+02 </wgt>
<wgt id='1517'> +1.1228235e+02 </wgt>
<wgt id='1518'> +1.1369927e+02 </wgt>
<wgt id='1519'> +1.1100926e+02 </wgt>
<wgt id='1520'> +1.0999239e+02 </wgt>
<wgt id='1521'> +1.1048945e+02 </wgt>
<wgt id='1522'> +1.1540516e+02 </wgt>
<wgt id='1523'> +1.0756633e+02 </wgt>
<wgt id='1524'> +1.1753375e+02 </wgt>
<wgt id='1525'> +1.1149664e+02 </wgt>
<wgt id='1526'> +1.1232896e+02 </wgt>
<wgt id='1527'> +1.1131330e+02 </wgt>
<wgt id='1528'> +1.1013294e+02 </wgt>
<wgt id='1529'> +1.1184806e+02 </wgt>
<wgt id='1530'> +1.1103729e+02 </wgt>
<wgt id='1531'> +1.1184942e+02 </wgt>
<wgt id='1532'> +1.1169872e+02 </wgt>
<wgt id='1533'> +1.1198599e+02 </wgt>
<wgt id='1534'> +1.1019369e+02 </wgt>
<wgt id='1535'> +1.1278277e+02 </wgt>
<wgt id='1536'> +1.1078402e+02 </wgt>
<wgt id='1537'> +1.1212848e+02 </wgt>
<wgt id='1538'> +1.1072549e+02 </wgt>
<wgt id='1539'> +1.1121223e+02 </wgt>
<wgt id='1540'> +1.1391028e+02 </wgt>
<wgt id='1541'> +1.0811050e+02 </wgt>
<wgt id='1542'> +1.1532228e+02 </wgt>
<wgt id='1543'> +1.0718546e+02 </wgt>
<wgt id='1544'> +1.1201560e+02 </wgt>
<wgt id='1545'> +1.1087856e+02 </wgt>
<wgt id='1546'> +1.1094517e+02 </wgt>
<wgt id='1547'> +1.1214111e+02 </wgt>
<wgt id='1548'> +1.1128106e+02 </wgt>
<wgt id='1549'> +1.1168144e+02 </wgt>
<wgt id='1550'> +1.1044368e+02 </wgt>
<wgt id='1551'> +1.1234085e+02 </wgt>
<wgt id='1552'> +1.1209695e+02 </wgt>
<wgt id='1553'> +1.1060747e+02 </wgt>
<wgt id='1554'> +1.1076021e+02 </wgt>
<wgt id='1555'> +1.1175006e+02 </wgt>
<wgt id='1556'> +1.1034879e+02 </wgt>
<wgt id='1557'> +1.1294708e+02 </wgt>
<wgt id='1558'> +1.1173018e+02 </wgt>
<wgt id='1559'> +1.1096008e+02 </wgt>
<wgt id='1560'> +1.1018827e+02 </wgt>
<wgt id='1561'> +1.1291647e+02 </wgt>
<wgt id='1562'> +1.1155215e+02 </wgt>
<wgt id='1563'> +1.1091908e+02 </wgt>
<wgt id='1564'> +1.0929751e+02 </wgt>
<wgt id='1565'> +1.1244076e+02 </wgt>
<wgt id='1566'> +1.1125044e+02 </wgt>
<wgt id='1567'> +1.1200771e+02 </wgt>
<wgt id='1568'> +1.1147833e+02 </wgt>
<wgt id='1569'> +1.1131475e+02 </wgt>
<wgt id='1570'> +1.1126918e+02 </wgt>
<wgt id='1571'> +1.0989053e+02 </wgt>
<wgt id='1572'> +1.1022050e+02 </wgt>
<wgt id='1573'> +1.1100084e+02 </wgt>
<wgt id='1574'> +1.0985403e+02 </wgt>
<wgt id='1575'> +1.1195313e+02 </wgt>
<wgt id='1576'> +1.1129386e+02 </wgt>
<wgt id='1577'> +1.1098921e+02 </wgt>
<wgt id='1578'> +1.1141003e+02 </wgt>
<wgt id='1579'> +1.1081236e+02 </wgt>
<wgt id='1580'> +1.1049827e+02 </wgt>
<wgt id='1581'> +1.1336098e+02 </wgt>
<wgt id='1582'> +1.0658193e+02 </wgt>
<wgt id='1583'> +1.1638554e+02 </wgt>
<wgt id='1584'> +1.0185287e+02 </wgt>
<wgt id='1585'> +1.0757947e+02 </wgt>
<wgt id='1586'> +1.0702123e+02 </wgt>
<wgt id='1587'> +1.0818191e+02 </wgt>
<wgt id='1588'> +1.0720076e+02 </wgt>
<wgt id='1589'> +1.0783483e+02 </wgt>
<wgt id='1590'> +1.0711476e+02 </wgt>
<wgt id='1591'> +1.0801156e+02 </wgt>
<wgt id='1592'> +1.0805000e+02 </wgt>
<wgt id='1593'> +1.0705142e+02 </wgt>
<wgt id='1594'> +1.0666265e+02 </wgt>
<wgt id='1595'> +1.0847811e+02 </wgt>
<wgt id='1596'> +1.0727322e+02 </wgt>
<wgt id='1597'> +1.0824628e+02 </wgt>
<wgt id='1598'> +1.0721599e+02 </wgt>
<wgt id='1599'> +1.0822721e+02 </wgt>
<wgt id='1600'> +1.0773166e+02 </wgt>
<wgt id='1601'> +1.0749077e+02 </wgt>
<wgt id='1602'> +1.0818864e+02 </wgt>
<wgt id='1603'> +1.0686060e+02 </wgt>
<wgt id='1604'> +1.0670569e+02 </wgt>
<wgt id='1605'> +1.0833839e+02 </wgt>
<wgt id='1606'> +1.0837578e+02 </wgt>
<wgt id='1607'> +1.0654601e+02 </wgt>
<wgt id='1608'> +1.0874761e+02 </wgt>
<wgt id='1609'> +1.0678530e+02 </wgt>
<wgt id='1610'> +1.0789345e+02 </wgt>
<wgt id='1611'> +1.0723674e+02 </wgt>
<wgt id='1612'> +1.0777847e+02 </wgt>
<wgt id='1613'> +1.0748799e+02 </wgt>
<wgt id='1614'> +1.0820030e+02 </wgt>
<wgt id='1615'> +1.0684812e+02 </wgt>
<wgt id='1616'> +1.0900854e+02 </wgt>
<wgt id='1617'> +1.0596301e+02 </wgt>
<wgt id='1618'> +1.0672821e+02 </wgt>
<wgt id='1619'> +1.0840494e+02 </wgt>
<wgt id='1620'> +1.0757645e+02 </wgt>
<wgt id='1621'> +1.0705183e+02 </wgt>
<wgt id='1622'> +1.0721467e+02 </wgt>
<wgt id='1623'> +1.0789861e+02 </wgt>
<wgt id='1624'> +1.0748743e+02 </wgt>
<wgt id='1625'> +1.0762266e+02 </wgt>
<wgt id='1626'> +1.0612753e+02 </wgt>
<wgt id='1627'> +1.0941573e+02 </wgt>
<wgt id='1628'> +1.0793118e+02 </wgt>
<wgt id='1629'> +1.0699159e+02 </wgt>
<wgt id='1630'> +1.0693623e+02 </wgt>
<wgt id='1631'> +1.0922372e+02 </wgt>
<wgt id='1632'> +1.0796962e+02 </wgt>
<wgt id='1633'> +1.0662301e+02 </wgt>
<wgt id='1634'> +1.0724279e+02 </wgt>
<wgt id='1635'> +1.0785052e+02 </wgt>
<wgt id='1636'> +1.1234875e+02 </wgt>
<wgt id='1637'> +1.1181094e+02 </wgt>
<wgt id='1638'> +1.1303940e+02 </wgt>
<wgt id='1639'> +1.1203869e+02 </wgt>
<wgt id='1640'> +1.1265832e+02 </wgt>
<wgt id='1641'> +1.1173552e+02 </wgt>
<wgt id='1642'> +1.1259346e+02 </wgt>
<wgt id='1643'> +1.1259000e+02 </wgt>
<wgt id='1644'> +1.1209637e+02 </wgt>
<wgt id='1645'> +1.1181560e+02 </wgt>
<wgt id='1646'> +1.1286134e+02 </wgt>
<wgt id='1647'> +1.1382141e+02 </wgt>
<wgt id='1648'> +1.1171963e+02 </wgt>
<wgt id='1649'> +1.1228582e+02 </wgt>
<wgt id='1650'> +1.1242152e+02 </wgt>
<wgt id='1651'> +1.1198043e+02 </wgt>
<wgt id='1652'> +1.1274586e+02 </wgt>
<wgt id='1653'> +1.1243241e+02 </wgt>
<wgt id='1654'> +1.1228954e+02 </wgt>
<wgt id='1655'> +1.1311057e+02 </wgt>
<wgt id='1656'> +1.1131737e+02 </wgt>
<wgt id='1657'> +1.1146608e+02 </wgt>
<wgt id='1658'> +1.1296623e+02 </wgt>
<wgt id='1659'> +1.1057640e+02 </wgt>
<wgt id='1660'> +1.1408417e+02 </wgt>
<wgt id='1661'> +1.1182000e+02 </wgt>
<wgt id='1662'> +1.1363315e+02 </wgt>
<wgt id='1663'> +1.1224583e+02 </wgt>
<wgt id='1664'> +1.1246290e+02 </wgt>
<wgt id='1665'> +1.1176987e+02 </wgt>
<wgt id='1666'> +1.1395870e+02 </wgt>
<wgt id='1667'> +1.1312605e+02 </wgt>
<wgt id='1668'> +1.1060183e+02 </wgt>
<wgt id='1669'> +1.1235421e+02 </wgt>
<wgt id='1670'> +1.1207557e+02 </wgt>
<wgt id='1671'> +1.1239454e+02 </wgt>
<wgt id='1672'> +1.1211409e+02 </wgt>
<wgt id='1673'> +1.1237028e+02 </wgt>
<wgt id='1674'> +1.1230404e+02 </wgt>
<wgt id='1675'> +1.1227948e+02 </wgt>
<wgt id='1676'> +1.1233550e+02 </wgt>
<wgt id='1677'> +1.1377385e+02 </wgt>
<wgt id='1678'> +1.0970445e+02 </wgt>
<wgt id='1679'> +1.1262691e+02 </wgt>
<wgt id='1680'> +1.1104892e+02 </wgt>
<wgt id='1681'> +1.1184157e+02 </wgt>
<wgt id='1682'> +1.1266823e+02 </wgt>
<wgt id='1683'> +1.1380611e+02 </wgt>
<wgt id='1684'> +1.1166059e+02 </wgt>
<wgt id='1685'> +1.1219371e+02 </wgt>
<wgt id='1686'> +1.1210981e+02 </wgt>
<wgt id='1687'> +1.3004802e+02 </wgt>
<wgt id='1688'> +1.1481736e+02 </wgt>
<wgt id='1689'> +1.1479115e+02 </wgt>
<wgt id='1690'> +1.1465991e+02 </wgt>
<wgt id='1691'> +1.1513925e+02 </wgt>
<wgt id='1692'> +1.1482079e+02 </wgt>
<wgt id='1693'> +1.1504988e+02 </wgt>
<wgt id='1694'> +1.1459752e+02 </wgt>
<wgt id='1695'> +1.1512914e+02 </wgt>
<wgt id='1696'> +1.1400059e+02 </wgt>
<wgt id='1697'> +1.1447970e+02 </wgt>
<wgt id='1698'> +1.1497785e+02 </wgt>
<wgt id='1699'> +1.1448422e+02 </wgt>
<wgt id='1700'> +1.1519515e+02 </wgt>
<wgt id='1701'> +1.1493841e+02 </wgt>
<wgt id='1702'> +1.1446201e+02 </wgt>
<wgt id='1703'> +1.1497819e+02 </wgt>
<wgt id='1704'> +1.1469167e+02 </wgt>
<wgt id='1705'> +1.1449665e+02 </wgt>
<wgt id='1706'> +1.1438479e+02 </wgt>
<wgt id='1707'> +1.1482086e+02 </wgt>
<wgt id='1708'> +1.1444867e+02 </wgt>
<wgt id='1709'> +1.1446799e+02 </wgt>
<wgt id='1710'> +1.1490431e+02 </wgt>
<wgt id='1711'> +1.1464404e+02 </wgt>
<wgt id='1712'> +1.1505220e+02 </wgt>
<wgt id='1713'> +1.1477170e+02 </wgt>
<wgt id='1714'> +1.1460275e+02 </wgt>
<wgt id='1715'> +1.1447356e+02 </wgt>
<wgt id='1716'> +1.1542348e+02 </wgt>
<wgt id='1717'> +1.1415121e+02 </wgt>
<wgt id='1718'> +1.0989643e+02 </wgt>
<wgt id='1719'> +1.0957328e+02 </wgt>
<wgt id='1720'> +1.0895326e+02 </wgt>
<wgt id='1721'> +1.1065998e+02 </wgt>
<wgt id='1722'> +1.0964590e+02 </wgt>
<wgt id='1723'> +1.1034163e+02 </wgt>
<wgt id='1724'> +1.0907153e+02 </wgt>
<wgt id='1725'> +1.1038837e+02 </wgt>
<wgt id='1726'> +1.0978750e+02 </wgt>
<wgt id='1727'> +1.0980661e+02 </wgt>
<wgt id='1728'> +1.0946026e+02 </wgt>
<wgt id='1729'> +1.0892599e+02 </wgt>
<wgt id='1730'> +1.0997405e+02 </wgt>
<wgt id='1731'> +1.1049897e+02 </wgt>
<wgt id='1732'> +1.0954382e+02 </wgt>
<wgt id='1733'> +1.0978240e+02 </wgt>
<wgt id='1734'> +1.0877883e+02 </wgt>
<wgt id='1735'> +1.1020988e+02 </wgt>
<wgt id='1736'> +1.1162983e+02 </wgt>
<wgt id='1737'> +1.0924815e+02 </wgt>
<wgt id='1738'> +1.0998996e+02 </wgt>
<wgt id='1739'> +1.1031213e+02 </wgt>
<wgt id='1740'> +1.0932720e+02 </wgt>
<wgt id='1741'> +1.1126983e+02 </wgt>
<wgt id='1742'> +1.0959342e+02 </wgt>
<wgt id='1743'> +1.1016355e+02 </wgt>
<wgt id='1744'> +1.0994219e+02 </wgt>
<wgt id='1745'> +1.1000540e+02 </wgt>
<wgt id='1746'> +1.1016766e+02 </wgt>
<wgt id='1747'> +1.0993838e+02 </wgt>
<wgt id='1748'> +1.1025455e+02 </wgt>
<wgt id='1749'> +1.0985339e+02 </wgt>
<wgt id='1750'> +1.0981617e+02 </wgt>
<wgt id='1751'> +1.1028302e+02 </wgt>
<wgt id='1752'> +1.1051520e+02 </wgt>
<wgt id='1753'> +1.1044286e+02 </wgt>
<wgt id='1754'> +1.0953707e+02 </wgt>
<wgt id='1755'> +1.0983270e+02 </wgt>
<wgt id='1756'> +1.0993867e+02 </wgt>
<wgt id='1757'> +1.1032077e+02 </wgt>
<wgt id='1758'> +1.1026634e+02 </wgt>
<wgt id='1759'> +1.1027912e+02 </wgt>
<wgt id='1760'> +1.0999802e+02 </wgt>
<wgt id='1761'> +1.0959707e+02 </wgt>
<wgt id='1762'> +1.1009232e+02 </wgt>
<wgt id='1763'> +1.1029142e+02 </wgt>
<wgt id='1764'> +1.1009648e+02 </wgt>
<wgt id='1765'> +1.0958158e+02 </wgt>
<wgt id='1766'> +1.0945581e+02 </wgt>
<wgt id='1767'> +1.0996031e+02 </wgt>
<wgt id='1768'> +1.0995991e+02 </wgt>
<wgt id='1769'> +1.0965773e+02 </wgt>
<wgt id='1770'> +1.1046182e+02 </wgt>
<wgt id='1771'> +1.0955876e+02 </wgt>
<wgt id='1772'> +1.0980039e+02 </wgt>
<wgt id='1773'> +1.1011621e+02 </wgt>
<wgt id='1774'> +1.0976829e+02 </wgt>
<wgt id='1775'> +1.0957206e+02 </wgt>
<wgt id='1776'> +1.0989008e+02 </wgt>
<wgt id='1777'> +1.0978951e+02 </wgt>
<wgt id='1778'> +1.0985876e+02 </wgt>
<wgt id='1779'> +1.1015564e+02 </wgt>
<wgt id='1780'> +1.0960562e+02 </wgt>
<wgt id='1781'> +1.0970749e+02 </wgt>
<wgt id='1782'> +1.0992899e+02 </wgt>
<wgt id='1783'> +1.0984735e+02 </wgt>
<wgt id='1784'> +1.0961155e+02 </wgt>
<wgt id='1785'> +1.0988643e+02 </wgt>
<wgt id='1786'> +1.0995961e+02 </wgt>
<wgt id='1787'> +1.0997607e+02 </wgt>
<wgt id='1788'> +1.0996887e+02 </wgt>
<wgt id='1789'> +1.0989097e+02 </wgt>
<wgt id='1790'> +1.0982403e+02 </wgt>
<wgt id='1791'> +1.0985817e+02 </wgt>
<wgt id='1792'> +1.0994793e+02 </wgt>
<wgt id='1793'> +1.0978550e+02 </wgt>
<wgt id='1794'> +1.0995378e+02 </wgt>
<wgt id='1795'> +1.0970604e+02 </wgt>
<wgt id='1796'> +1.0993617e+02 </wgt>
<wgt id='1797'> +1.0988145e+02 </wgt>
<wgt id='1798'> +1.0983640e+02 </wgt>
<wgt id='1799'> +1.0976068e+02 </wgt>
<wgt id='1800'> +1.0989955e+02 </wgt>
<wgt id='1801'> +1.0989079e+02 </wgt>
<wgt id='1802'> +1.0986896e+02 </wgt>
<wgt id='1803'> +1.1004253e+02 </wgt>
<wgt id='1804'> +1.0990590e+02 </wgt>
<wgt id='1805'> +1.0993058e+02 </wgt>
<wgt id='1806'> +1.0993278e+02 </wgt>
<wgt id='1807'> +1.0993885e+02 </wgt>
<wgt id='1808'> +1.0991814e+02 </wgt>
<wgt id='1809'> +1.0988998e+02 </wgt>
<wgt id='1810'> +1.0983998e+02 </wgt>
<wgt id='1811'> +1.0982690e+02 </wgt>
<wgt id='1812'> +1.0991369e+02 </wgt>
<wgt id='1813'> +1.0994255e+02 </wgt>
<wgt id='1814'> +1.0992519e+02 </wgt>
<wgt id='1815'> +1.0990470e+02 </wgt>
<wgt id='1816'> +1.0992303e+02 </wgt>
<wgt id='1817'> +1.0992383e+02 </wgt>
<wgt id='1818'> +1.0989463e+02 </wgt>
<wgt id='1819'> +1.0580024e+02 </wgt>
<wgt id='1820'> +1.1376070e+02 </wgt>
<wgt id='1821'> +1.1223550e+02 </wgt>
<wgt id='1822'> +1.1237082e+02 </wgt>
<wgt id='1823'> +1.1182951e+02 </wgt>
<wgt id='1824'> +1.1268025e+02 </wgt>
<wgt id='1825'> +1.1292058e+02 </wgt>
<wgt id='1826'> +1.1271569e+02 </wgt>
<wgt id='1827'> +1.1267077e+02 </wgt>
<wgt id='1828'> +1.1246816e+02 </wgt>
<wgt id='1829'> +1.1233760e+02 </wgt>
<wgt id='1830'> +1.1232674e+02 </wgt>
<wgt id='1831'> +1.1211472e+02 </wgt>
<wgt id='1832'> +1.1291602e+02 </wgt>
<wgt id='1833'> +1.1240427e+02 </wgt>
<wgt id='1834'> +1.1282889e+02 </wgt>
<wgt id='1835'> +1.1212420e+02 </wgt>
<wgt id='1836'> +1.1267403e+02 </wgt>
<wgt id='1837'> +1.1188270e+02 </wgt>
<wgt id='1838'> +1.1213294e+02 </wgt>
<wgt id='1839'> +1.1311853e+02 </wgt>
<wgt id='1840'> +1.1066061e+02 </wgt>
<wgt id='1841'> +1.1209314e+02 </wgt>
<wgt id='1842'> +1.1267170e+02 </wgt>
<wgt id='1843'> +1.1080569e+02 </wgt>
<wgt id='1844'> +1.1287836e+02 </wgt>
<wgt id='1845'> +1.1330940e+02 </wgt>
<wgt id='1846'> +1.1200822e+02 </wgt>
<wgt id='1847'> +1.1180579e+02 </wgt>
<wgt id='1848'> +1.1239232e+02 </wgt>
<wgt id='1849'> +1.1197471e+02 </wgt>
<wgt id='1850'> +1.1181348e+02 </wgt>
<wgt id='1851'> +1.1195543e+02 </wgt>
<wgt id='1852'> +1.1227473e+02 </wgt>
<wgt id='1853'> +1.1227880e+02 </wgt>
<wgt id='1854'> +1.1203608e+02 </wgt>
<wgt id='1855'> +1.1227322e+02 </wgt>
<wgt id='1856'> +1.1191573e+02 </wgt>
<wgt id='1857'> +1.1307415e+02 </wgt>
<wgt id='1858'> +1.1207857e+02 </wgt>
<wgt id='1859'> +1.1224965e+02 </wgt>
<wgt id='1860'> +1.1232877e+02 </wgt>
<wgt id='1861'> +1.1172118e+02 </wgt>
<wgt id='1862'> +1.1217660e+02 </wgt>
<wgt id='1863'> +1.1230439e+02 </wgt>
<wgt id='1864'> +1.1203983e+02 </wgt>
<wgt id='1865'> +1.1217229e+02 </wgt>
<wgt id='1866'> +1.1206827e+02 </wgt>
<wgt id='1867'> +1.1169266e+02 </wgt>
<wgt id='1868'> +1.1110937e+02 </wgt>
<wgt id='1869'> +1.1212356e+02 </wgt>
<wgt id='1870'> +1.1187439e+02 </wgt>
<wgt id='1871'> +1.1220906e+02 </wgt>
<wgt id='1872'> +1.1209431e+02 </wgt>
<wgt id='1873'> +1.1232933e+02 </wgt>
<wgt id='1874'> +1.1213259e+02 </wgt>
<wgt id='1875'> +1.1184829e+02 </wgt>
<wgt id='1876'> +1.1225894e+02 </wgt>
<wgt id='1877'> +1.1268445e+02 </wgt>
<wgt id='1878'> +1.1216441e+02 </wgt>
<wgt id='1879'> +1.1192869e+02 </wgt>
<wgt id='1880'> +1.1219291e+02 </wgt>
<wgt id='1881'> +1.1232670e+02 </wgt>
<wgt id='1882'> +1.1228298e+02 </wgt>
<wgt id='1883'> +1.1226875e+02 </wgt>
<wgt id='1884'> +1.1199536e+02 </wgt>
<wgt id='1885'> +1.1207837e+02 </wgt>
<wgt id='1886'> +1.1250963e+02 </wgt>
<wgt id='1887'> +1.1219195e+02 </wgt>
<wgt id='1888'> +1.1228172e+02 </wgt>
<wgt id='1889'> +1.1219137e+02 </wgt>
<wgt id='1890'> +1.1241848e+02 </wgt>
<wgt id='1891'> +1.1225992e+02 </wgt>
<wgt id='1892'> +1.1215201e+02 </wgt>
<wgt id='1893'> +1.1236177e+02 </wgt>
<wgt id='1894'> +1.1216656e+02 </wgt>
<wgt id='1895'> +1.1223403e+02 </wgt>
<wgt id='1896'> +1.1215223e+02 </wgt>
<wgt id='1897'> +1.1219816e+02 </wgt>
<wgt id='1898'> +1.1242274e+02 </wgt>
<wgt id='1899'> +1.1220365e+02 </wgt>
<wgt id='1900'> +1.1221804e+02 </wgt>
<wgt id='1901'> +1.1220933e+02 </wgt>
<wgt id='1902'> +1.1229104e+02 </wgt>
<wgt id='1903'> +1.1217775e+02 </wgt>
<wgt id='1904'> +1.1231733e+02 </wgt>
<wgt id='1905'> +1.1225010e+02 </wgt>
<wgt id='1906'> +1.1219129e+02 </wgt>
<wgt id='1907'> +1.1224011e+02 </wgt>
<wgt id='1908'> +1.1217163e+02 </wgt>
<wgt id='1909'> +1.1223298e+02 </wgt>
<wgt id='1910'> +1.1214640e+02 </wgt>
<wgt id='1911'> +1.1226337e+02 </wgt>
<wgt id='1912'> +1.1224619e+02 </wgt>
<wgt id='1913'> +1.1229694e+02 </wgt>
<wgt id='1914'> +1.1220254e+02 </wgt>
<wgt id='1915'> +1.1221493e+02 </wgt>
<wgt id='1916'> +1.1232440e+02 </wgt>
<wgt id='1917'> +1.1220152e+02 </wgt>
<wgt id='1918'> +1.1221688e+02 </wgt>
<wgt id='1919'> +1.1222533e+02 </wgt>
<wgt id='1920'> +1.1220941e+02 </wgt>
<wgt id='1921'> +1.1225635e+02 </wgt>
<wgt id='1922'> +1.0831041e+02 </wgt>
<wgt id='1923'> +1.1620842e+02 </wgt>
<wgt id='1924'> +1.0991892e+02 </wgt>
<wgt id='1925'> +1.0983888e+02 </wgt>
<wgt id='1926'> +1.0778387e+02 </wgt>
<wgt id='1927'> +1.0974182e+02 </wgt>
<wgt id='1928'> +1.1132969e+02 </wgt>
<wgt id='1929'> +1.0922192e+02 </wgt>
<wgt id='1930'> +1.1035688e+02 </wgt>
<wgt id='1931'> +1.0991865e+02 </wgt>
<wgt id='1932'> +1.1015358e+02 </wgt>
<wgt id='1933'> +1.1006019e+02 </wgt>
<wgt id='1934'> +1.1008556e+02 </wgt>
<wgt id='1935'> +1.0960099e+02 </wgt>
<wgt id='1936'> +1.1078388e+02 </wgt>
<wgt id='1937'> +1.0984532e+02 </wgt>
<wgt id='1938'> +1.0919845e+02 </wgt>
<wgt id='1939'> +1.1016040e+02 </wgt>
<wgt id='1940'> +1.1002538e+02 </wgt>
<wgt id='1941'> +1.0950974e+02 </wgt>
<wgt id='1942'> +1.0967726e+02 </wgt>
<wgt id='1943'> +1.1031656e+02 </wgt>
<wgt id='1944'> +1.1153995e+02 </wgt>
<wgt id='1945'> +1.0945846e+02 </wgt>
<wgt id='1946'> +1.0967637e+02 </wgt>
<wgt id='1947'> +1.1001664e+02 </wgt>
<wgt id='1948'> +1.0954308e+02 </wgt>
<wgt id='1949'> +1.0990330e+02 </wgt>
<wgt id='1950'> +1.0958751e+02 </wgt>
<wgt id='1951'> +1.0903372e+02 </wgt>
<wgt id='1952'> +1.0998030e+02 </wgt>
<wgt id='1953'> +1.0985808e+02 </wgt>
<wgt id='1954'> +1.1014514e+02 </wgt>
<wgt id='1955'> +1.0580024e+02 </wgt>
<wgt id='1956'> +1.1376070e+02 </wgt>
<wgt id='1957'> +1.1223169e+02 </wgt>
<wgt id='1958'> +1.1267797e+02 </wgt>
<wgt id='1959'> +1.1308517e+02 </wgt>
<wgt id='1960'> +1.1217544e+02 </wgt>
<wgt id='1961'> +1.1084294e+02 </wgt>
<wgt id='1962'> +1.1155868e+02 </wgt>
<wgt id='1963'> +1.1231506e+02 </wgt>
<wgt id='1964'> +1.1216876e+02 </wgt>
<wgt id='1965'> +1.1222242e+02 </wgt>
<wgt id='1966'> +1.1107029e+02 </wgt>
<wgt id='1967'> +1.1202429e+02 </wgt>
<wgt id='1968'> +1.1381506e+02 </wgt>
<wgt id='1969'> +1.1239349e+02 </wgt>
<wgt id='1970'> +1.1219559e+02 </wgt>
<wgt id='1971'> +1.1212980e+02 </wgt>
<wgt id='1972'> +1.1243416e+02 </wgt>
<wgt id='1973'> +1.1217884e+02 </wgt>
<wgt id='1974'> +1.1130565e+02 </wgt>
<wgt id='1975'> +1.1226491e+02 </wgt>
<wgt id='1976'> +1.1278039e+02 </wgt>
<wgt id='1977'> +1.1153708e+02 </wgt>
<wgt id='1978'> +1.1161118e+02 </wgt>
<wgt id='1979'> +1.1201723e+02 </wgt>
<wgt id='1980'> +1.1221720e+02 </wgt>
<wgt id='1981'> +1.1219134e+02 </wgt>
<wgt id='1982'> +1.1240764e+02 </wgt>
<wgt id='1983'> +1.1103765e+02 </wgt>
<wgt id='1984'> +1.1247393e+02 </wgt>
<wgt id='1985'> +1.1276030e+02 </wgt>
<wgt id='1986'> +1.1210526e+02 </wgt>
<wgt id='1987'> +1.1348909e+02 </wgt>
<wgt id='1988'> +1.0831041e+02 </wgt>
<wgt id='1989'> +1.1620842e+02 </wgt>
<wgt id='1990'> +1.2842806e+02 </wgt>
<wgt id='1991'> +1.2872348e+02 </wgt>
<wgt id='1992'> +1.2813398e+02 </wgt>
<wgt id='1993'> +1.2798378e+02 </wgt>
<wgt id='1994'> +1.2887258e+02 </wgt>
<wgt id='1995'> +1.2832052e+02 </wgt>
<wgt id='1996'> +1.2853442e+02 </wgt>
<wgt id='1997'> +1.2796201e+02 </wgt>
<wgt id='1998'> +1.2887688e+02 </wgt>
<wgt id='1999'> +1.2950448e+02 </wgt>
<wgt id='2000'> +1.2735228e+02 </wgt>
<wgt id='2001'> +1.2889681e+02 </wgt>
<wgt id='2002'> +1.2797747e+02 </wgt>
<wgt id='2003'> +1.2831025e+02 </wgt>
<wgt id='2004'> +1.2853945e+02 </wgt>
<wgt id='2005'> +1.2786203e+02 </wgt>
<wgt id='2006'> +1.2890137e+02 </wgt>
<wgt id='2007'> +1.2803819e+02 </wgt>
<wgt id='2008'> +1.2884749e+02 </wgt>
<wgt id='2009'> +1.2800341e+02 </wgt>
<wgt id='2010'> +1.2882794e+02 </wgt>
<wgt id='2011'> +1.2923961e+02 </wgt>
<wgt id='2012'> +1.2764571e+02 </wgt>
<wgt id='2013'> +1.2705309e+02 </wgt>
<wgt id='2014'> +1.2960500e+02 </wgt>
<wgt id='2015'> +1.2830074e+02 </wgt>
<wgt id='2016'> +1.2845880e+02 </wgt>
<wgt id='2017'> +1.2657085e+02 </wgt>
<wgt id='2018'> +1.2977319e+02 </wgt>
<wgt id='2019'> +1.2842806e+02 </wgt>
<wgt id='2020'> +1.2957968e+02 </wgt>
<wgt id='2021'> +1.2702375e+02 </wgt>
<wgt id='2022'> +1.2972925e+02 </wgt>
<wgt id='2023'> +1.2747643e+02 </wgt>
<wgt id='2024'> +1.2898996e+02 </wgt>
<wgt id='2025'> +1.2771841e+02 </wgt>
<wgt id='2026'> +1.2827330e+02 </wgt>
<wgt id='2027'> +1.2864159e+02 </wgt>
<wgt id='2028'> +1.2726781e+02 </wgt>
<wgt id='2029'> +1.2962973e+02 </wgt>
<wgt id='2030'> +1.2867214e+02 </wgt>
<wgt id='2031'> +1.2943843e+02 </wgt>
<wgt id='2032'> +1.4058066e+02 </wgt>
<wgt id='2033'> +1.2805592e+02 </wgt>
<wgt id='2034'> +1.2832747e+02 </wgt>
<wgt id='2035'> +1.2788023e+02 </wgt>
<wgt id='2036'> +1.2774125e+02 </wgt>
<wgt id='2037'> +1.2846615e+02 </wgt>
<wgt id='2038'> +1.2780306e+02 </wgt>
<wgt id='2039'> +1.2840297e+02 </wgt>
<wgt id='2040'> +1.2714692e+02 </wgt>
<wgt id='2041'> +1.2904230e+02 </wgt>
<wgt id='2042'> +1.2893345e+02 </wgt>
<wgt id='2043'> +1.2727241e+02 </wgt>
<wgt id='2044'> +1.2847774e+02 </wgt>
<wgt id='2045'> +1.2772951e+02 </wgt>
<wgt id='2046'> +1.2772624e+02 </wgt>
<wgt id='2047'> +1.2847516e+02 </wgt>
<wgt id='2048'> +1.2781030e+02 </wgt>
<wgt id='2049'> +1.2829366e+02 </wgt>
<wgt id='2050'> +1.2829237e+02 </wgt>
<wgt id='2051'> +1.2791157e+02 </wgt>
<wgt id='2052'> +1.2824444e+02 </wgt>
<wgt id='2053'> +1.2797313e+02 </wgt>
<wgt id='2054'> +1.2673998e+02 </wgt>
<wgt id='2055'> +1.2949007e+02 </wgt>
<wgt id='2056'> +1.2751162e+02 </wgt>
<wgt id='2057'> +1.2862627e+02 </wgt>
<wgt id='2058'> +1.2747758e+02 </wgt>
<wgt id='2059'> +1.2840595e+02 </wgt>
<wgt id='2060'> +1.2676945e+02 </wgt>
<wgt id='2061'> +1.2884859e+02 </wgt>
<wgt id='2062'> +1.2795358e+02 </wgt>
<wgt id='2063'> +1.2946597e+02 </wgt>
<wgt id='2064'> +1.2602887e+02 </wgt>
<wgt id='2065'> +1.2981908e+02 </wgt>
<wgt id='2066'> +1.2673666e+02 </wgt>
<wgt id='2067'> +1.2710391e+02 </wgt>
<wgt id='2068'> +1.2692848e+02 </wgt>
<wgt id='2069'> +1.2784471e+02 </wgt>
<wgt id='2070'> +1.2850111e+02 </wgt>
<wgt id='2071'> +1.2506841e+02 </wgt>
<wgt id='2072'> +1.2815037e+02 </wgt>
<wgt id='2073'> +1.2556916e+02 </wgt>
<wgt id='2074'> +1.3100529e+02 </wgt>
<wgt id='2075'> +1.3014481e+02 </wgt>
<wgt id='2076'> +1.0986260e+02 </wgt>
<wgt id='2077'> +1.0982396e+02 </wgt>
<wgt id='2078'> +1.0978517e+02 </wgt>
<wgt id='2079'> +1.0974668e+02 </wgt>
<wgt id='2080'> +1.0970802e+02 </wgt>
<wgt id='2081'> +1.0967000e+02 </wgt>
<wgt id='2082'> +1.0963140e+02 </wgt>
<wgt id='2083'> +1.0959279e+02 </wgt>
<wgt id='2084'> +1.0955447e+02 </wgt>
<wgt id='2085'> +1.0951608e+02 </wgt>
<wgt id='2086'> +1.0947745e+02 </wgt>
<wgt id='2087'> +1.0943822e+02 </wgt>
<wgt id='2088'> +1.0939969e+02 </wgt>
<wgt id='2089'> +1.0936108e+02 </wgt>
<wgt id='2090'> +1.0932247e+02 </wgt>
<wgt id='2091'> +1.0928399e+02 </wgt>
<wgt id='2092'> +1.0924538e+02 </wgt>
<wgt id='2093'> +1.0920687e+02 </wgt>
<wgt id='2094'> +1.0916853e+02 </wgt>
<wgt id='2095'> +1.0912994e+02 </wgt>
<wgt id='2096'> +1.0909144e+02 </wgt>
<wgt id='2097'> +1.0905308e+02 </wgt>
<wgt id='2098'> +1.0901455e+02 </wgt>
<wgt id='2099'> +1.0897607e+02 </wgt>
<wgt id='2100'> +1.0893752e+02 </wgt>
<wgt id='2101'> +1.0889795e+02 </wgt>
<wgt id='2102'> +1.0885960e+02 </wgt>
<wgt id='2103'> +1.0882150e+02 </wgt>
<wgt id='2104'> +1.0878281e+02 </wgt>
<wgt id='2105'> +1.0874444e+02 </wgt>
<wgt id='2106'> +1.0870616e+02 </wgt>
<wgt id='2107'> +1.1156088e+02 </wgt>
<wgt id='2108'> +1.1168428e+02 </wgt>
<wgt id='2109'> +1.1115549e+02 </wgt>
<wgt id='2110'> +1.1200135e+02 </wgt>
<wgt id='2111'> +1.1223826e+02 </wgt>
<wgt id='2112'> +1.1203565e+02 </wgt>
<wgt id='2113'> +1.1200162e+02 </wgt>
<wgt id='2114'> +1.1180328e+02 </wgt>
<wgt id='2115'> +1.1166328e+02 </wgt>
<wgt id='2116'> +1.1164969e+02 </wgt>
<wgt id='2117'> +1.1143735e+02 </wgt>
<wgt id='2118'> +1.1224892e+02 </wgt>
<wgt id='2119'> +1.1173360e+02 </wgt>
<wgt id='2120'> +1.1215428e+02 </wgt>
<wgt id='2121'> +1.1145095e+02 </wgt>
<wgt id='2122'> +1.1198563e+02 </wgt>
<wgt id='2123'> +1.1122165e+02 </wgt>
<wgt id='2124'> +1.1145275e+02 </wgt>
<wgt id='2125'> +1.1243643e+02 </wgt>
<wgt id='2126'> +1.1000278e+02 </wgt>
<wgt id='2127'> +1.1142690e+02 </wgt>
<wgt id='2128'> +1.1199111e+02 </wgt>
<wgt id='2129'> +1.1013443e+02 </wgt>
<wgt id='2130'> +1.1220477e+02 </wgt>
<wgt id='2131'> +1.1262553e+02 </wgt>
<wgt id='2132'> +1.1132693e+02 </wgt>
<wgt id='2133'> +1.1112449e+02 </wgt>
<wgt id='2134'> +1.1172621e+02 </wgt>
<wgt id='2135'> +1.1130360e+02 </wgt>
<wgt id='2136'> +1.1113474e+02 </wgt>
<wgt id='2137'> +1.1127729e+02 </wgt>
<wgt id='2138'> +1.1160867e+02 </wgt>
<wgt id='2139'> +1.1160022e+02 </wgt>
<wgt id='2140'> +1.1135784e+02 </wgt>
<wgt id='2141'> +1.1159767e+02 </wgt>
<wgt id='2142'> +1.1123949e+02 </wgt>
<wgt id='2143'> +1.1239637e+02 </wgt>
<wgt id='2144'> +1.1140370e+02 </wgt>
<wgt id='2145'> +1.1157330e+02 </wgt>
<wgt id='2146'> +1.1165027e+02 </wgt>
<wgt id='2147'> +1.1104934e+02 </wgt>
<wgt id='2148'> +1.1150039e+02 </wgt>
<wgt id='2149'> +1.1162898e+02 </wgt>
<wgt id='2150'> +1.1137133e+02 </wgt>
<wgt id='2151'> +1.1149648e+02 </wgt>
<wgt id='2152'> +1.1139483e+02 </wgt>
<wgt id='2153'> +1.1102245e+02 </wgt>
<wgt id='2154'> +1.1044033e+02 </wgt>
<wgt id='2155'> +1.1144946e+02 </wgt>
<wgt id='2156'> +1.1119981e+02 </wgt>
<wgt id='2157'> +1.1153361e+02 </wgt>
<wgt id='2158'> +1.1142053e+02 </wgt>
<wgt id='2159'> +1.1165684e+02 </wgt>
<wgt id='2160'> +1.1145798e+02 </wgt>
<wgt id='2161'> +1.1117662e+02 </wgt>
<wgt id='2162'> +1.1158571e+02 </wgt>
<wgt id='2163'> +1.1200460e+02 </wgt>
<wgt id='2164'> +1.1149093e+02 </wgt>
<wgt id='2165'> +1.1125966e+02 </wgt>
<wgt id='2166'> +1.1151972e+02 </wgt>
<wgt id='2167'> +1.1165432e+02 </wgt>
<wgt id='2168'> +1.1160822e+02 </wgt>
<wgt id='2169'> +1.1159264e+02 </wgt>
<wgt id='2170'> +1.1131963e+02 </wgt>
<wgt id='2171'> +1.1140625e+02 </wgt>
<wgt id='2172'> +1.1183269e+02 </wgt>
<wgt id='2173'> +1.1151723e+02 </wgt>
<wgt id='2174'> +1.1160479e+02 </wgt>
<wgt id='2175'> +1.1151696e+02 </wgt>
<wgt id='2176'> +1.1174299e+02 </wgt>
<wgt id='2177'> +1.1158613e+02 </wgt>
<wgt id='2178'> +1.1147772e+02 </wgt>
<wgt id='2179'> +1.1168651e+02 </wgt>
<wgt id='2180'> +1.1149046e+02 </wgt>
<wgt id='2181'> +1.1155823e+02 </wgt>
<wgt id='2182'> +1.1147832e+02 </wgt>
<wgt id='2183'> +1.1152428e+02 </wgt>
<wgt id='2184'> +1.1174549e+02 </wgt>
<wgt id='2185'> +1.1153191e+02 </wgt>
<wgt id='2186'> +1.1154452e+02 </wgt>
<wgt id='2187'> +1.1153349e+02 </wgt>
<wgt id='2188'> +1.1161680e+02 </wgt>
<wgt id='2189'> +1.1150297e+02 </wgt>
<wgt id='2190'> +1.1164015e+02 </wgt>
<wgt id='2191'> +1.1157582e+02 </wgt>
<wgt id='2192'> +1.1151759e+02 </wgt>
<wgt id='2193'> +1.1156752e+02 </wgt>
<wgt id='2194'> +1.1149702e+02 </wgt>
<wgt id='2195'> +1.1155774e+02 </wgt>
<wgt id='2196'> +1.1147096e+02 </wgt>
<wgt id='2197'> +1.1158898e+02 </wgt>
<wgt id='2198'> +1.1157041e+02 </wgt>
<wgt id='2199'> +1.1162150e+02 </wgt>
<wgt id='2200'> +1.1152827e+02 </wgt>
<wgt id='2201'> +1.1153876e+02 </wgt>
<wgt id='2202'> +1.1164979e+02 </wgt>
<wgt id='2203'> +1.1152820e+02 </wgt>
<wgt id='2204'> +1.1154212e+02 </wgt>
<wgt id='2205'> +1.1154912e+02 </wgt>
<wgt id='2206'> +1.1153600e+02 </wgt>
<wgt id='2207'> +1.1158258e+02 </wgt>
<wgt id='2208'> +1.1156077e+02 </wgt>
<wgt id='2209'> +1.1156019e+02 </wgt>
<wgt id='2210'> +1.1156099e+02 </wgt>
<wgt id='2211'> +1.1156101e+02 </wgt>
<wgt id='2212'> +1.1156120e+02 </wgt>
<wgt id='2213'> +1.1156093e+02 </wgt>
<wgt id='2214'> +1.1156042e+02 </wgt>
<wgt id='2215'> +1.1050223e+02 </wgt>
<wgt id='2216'> +1.0320594e+02 </wgt>
<wgt id='2217'> +1.0757359e+02 </wgt>
<wgt id='2218'> +1.1465022e+02 </wgt>
<wgt id='2219'> +1.1433351e+02 </wgt>
<wgt id='2220'> +1.0960968e+02 </wgt>
<wgt id='2221'> +1.0804678e+02 </wgt>
<wgt id='2222'> +1.1361727e+02 </wgt>
<wgt id='2223'> +1.0918087e+02 </wgt>
<wgt id='2224'> +1.1124842e+02 </wgt>
<wgt id='2225'> +1.1204685e+02 </wgt>
<wgt id='2226'> +1.0913743e+02 </wgt>
<wgt id='2227'> +1.1164231e+02 </wgt>
<wgt id='2228'> +1.1458108e+02 </wgt>
<wgt id='2229'> +1.1188828e+02 </wgt>
<wgt id='2230'> +1.0915134e+02 </wgt>
<wgt id='2231'> +1.0754849e+02 </wgt>
<wgt id='2232'> +1.0890529e+02 </wgt>
<wgt id='2233'> +1.0519883e+02 </wgt>
<wgt id='2234'> +1.0825623e+02 </wgt>
<wgt id='2235'> +1.1044808e+02 </wgt>
<wgt id='2236'> +1.1358240e+02 </wgt>
<wgt id='2237'> +1.1142772e+02 </wgt>
<wgt id='2238'> +1.1314278e+02 </wgt>
<wgt id='2239'> +1.1533970e+02 </wgt>
<wgt id='2240'> +1.1127142e+02 </wgt>
<wgt id='2241'> +1.1343056e+02 </wgt>
<wgt id='2242'> +1.0784588e+02 </wgt>
<wgt id='2243'> +1.1181556e+02 </wgt>
<wgt id='2244'> +1.1000098e+02 </wgt>
<wgt id='2245'> +1.1204185e+02 </wgt>
<wgt id='2246'> +1.1351246e+02 </wgt>
<wgt id='2247'> +1.1426877e+02 </wgt>
<wgt id='2248'> +1.1271569e+02 </wgt>
<wgt id='2249'> +1.1109688e+02 </wgt>
<wgt id='2250'> +1.1505673e+02 </wgt>
<wgt id='2251'> +1.0994847e+02 </wgt>
<wgt id='2252'> +1.0932857e+02 </wgt>
<wgt id='2253'> +1.0854136e+02 </wgt>
<wgt id='2254'> +1.0695256e+02 </wgt>
<wgt id='2255'> +1.1183299e+02 </wgt>
<wgt id='2256'> +1.0839239e+02 </wgt>
<wgt id='2257'> +1.0875499e+02 </wgt>
<wgt id='2258'> +1.1281800e+02 </wgt>
<wgt id='2259'> +1.0930478e+02 </wgt>
<wgt id='2260'> +1.1055095e+02 </wgt>
<wgt id='2261'> +1.0645412e+02 </wgt>
<wgt id='2262'> +1.0651355e+02 </wgt>
<wgt id='2263'> +1.0905410e+02 </wgt>
<wgt id='2264'> +1.1464004e+02 </wgt>
<wgt id='2265'> +1.1247134e+02 </wgt>
<wgt id='2266'> +1.1373288e+02 </wgt>
<wgt id='2267'> +1.1248528e+02 </wgt>
<wgt id='2268'> +1.1261684e+02 </wgt>
<wgt id='2269'> +1.1047498e+02 </wgt>
<wgt id='2270'> +1.1227399e+02 </wgt>
<wgt id='2271'> +1.0688769e+02 </wgt>
<wgt id='2272'> +1.1136455e+02 </wgt>
<wgt id='2273'> +1.1205388e+02 </wgt>
<wgt id='2274'> +1.0834081e+02 </wgt>
<wgt id='2275'> +1.1251875e+02 </wgt>
<wgt id='2276'> +1.1052287e+02 </wgt>
<wgt id='2277'> +1.0911123e+02 </wgt>
<wgt id='2278'> +1.1012529e+02 </wgt>
<wgt id='2279'> +1.0125871e+02 </wgt>
<wgt id='2280'> +1.1192808e+02 </wgt>
<wgt id='2281'> +1.1197536e+02 </wgt>
<wgt id='2282'> +1.1512961e+02 </wgt>
<wgt id='2283'> +1.1102903e+02 </wgt>
<wgt id='2284'> +1.1299291e+02 </wgt>
<wgt id='2285'> +1.0994749e+02 </wgt>
<wgt id='2286'> +1.1173590e+02 </wgt>
<wgt id='2287'> +1.1057786e+02 </wgt>
<wgt id='2288'> +1.0891211e+02 </wgt>
<wgt id='2289'> +1.1394462e+02 </wgt>
<wgt id='2290'> +1.0816516e+02 </wgt>
<wgt id='2291'> +1.1457182e+02 </wgt>
<wgt id='2292'> +1.1043924e+02 </wgt>
<wgt id='2293'> +1.0924016e+02 </wgt>
<wgt id='2294'> +1.1053293e+02 </wgt>
<wgt id='2295'> +1.1310691e+02 </wgt>
<wgt id='2296'> +1.1117010e+02 </wgt>
<wgt id='2297'> +1.1457299e+02 </wgt>
<wgt id='2298'> +1.0524000e+02 </wgt>
<wgt id='2299'> +1.1037372e+02 </wgt>
<wgt id='2300'> +1.1082303e+02 </wgt>
<wgt id='2301'> +1.0692149e+02 </wgt>
<wgt id='2302'> +1.1047707e+02 </wgt>
<wgt id='2303'> +1.1157152e+02 </wgt>
<wgt id='2304'> +1.0604064e+02 </wgt>
<wgt id='2305'> +1.1200083e+02 </wgt>
<wgt id='2306'> +1.1117595e+02 </wgt>
<wgt id='2307'> +1.1398813e+02 </wgt>
<wgt id='2308'> +1.0865013e+02 </wgt>
<wgt id='2309'> +1.0492544e+02 </wgt>
<wgt id='2310'> +1.0363750e+02 </wgt>
<wgt id='2311'> +1.1035768e+02 </wgt>
<wgt id='2312'> +1.1045767e+02 </wgt>
<wgt id='2313'> +1.1396272e+02 </wgt>
<wgt id='2314'> +1.1012385e+02 </wgt>
<wgt id='2315'> +1.0389718e+02 </wgt>
<wgt id='2316'> +1.0796974e+02 </wgt>
<wgt id='2317'> +1.1300419e+02 </wgt>
<wgt id='2318'> +1.1132998e+02 </wgt>
<wgt id='2319'> +1.2453707e+02 </wgt>
<wgt id='2320'> +1.5709851e+02 </wgt>
<wgt id='2321'> +1.0811125e+02 </wgt>
<wgt id='2322'> +1.4802938e+02 </wgt>
</rwgt>
</event>
<event>
12      0 +1.1579678e+02 3.82876200e+02 7.81859000e-03 9.70570300e-02
       -1 -1    0    0    0  501 +0.0000000000e+00 +0.0000000000e+00 +1.8570801952e+02 1.8570801952e+02 0.0000000000e+00 0.0000e+00 -1.0000e+00
        1 -1    0    0  502    0 +0.0000000000e+00 +0.0000000000e+00 -8.2587992463e+02 8.2587992463e+02 0.0000000000e+00 0.0000e+00 1.0000e+00
        6  2    1    2  502    0 -3.3532680303e+02 +6.6556679676e+01 -4.2739667171e+02 5.7461683123e+02 1.7505065357e+02 0.0000e+00 0.0000e+00
        5  1    3    3  502    0 -1.7461871489e+02 +9.1374864516e+01 -1.7054605261e+02 2.6062812111e+02 0.0000000000e+00 0.0000e+00 -1.0000e+00
       24  2    3    3    0    0 -1.6070808814e+02 -2.4818184840e+01 -2.5685061910e+02 3.1398871012e+02 7.8572499391e+01 0.0000e+00 0.0000e+00
      -13  1    5    5    0    0 -6.1231327034e+01 -1.7937402871e+01 -3.9987945794e+01 7.5299811692e+01 0.0000000000e+00 0.0000e+00 1.0000e+00
       14  1    5    5    0    0 -9.9476761104e+01 -6.8807819686e+00 -2.1686267331e+02 2.3868889843e+02 0.0000000000e+00 0.0000e+00 -1.0000e+00
       -6  2    1    2    0  501 +3.3532680303e+02 -6.6556679676e+01 -2.1277523340e+02 4.3697111292e+02 1.6969560141e+02 0.0000e+00 0.0000e+00
       -5  1    8    8    0  501 +9.6635220733e+01 +3.8901653906e+01 -2.9960914129e+01 1.0839446913e+02 0.0000000000e+00 0.0000e+00 1.0000e+00
      -24  2    8    8    0    0 +2.3869158229e+02 -1.0545833358e+02 -1.8281431928e+02 3.2857664379e+02 8.0289500750e+01 0.0000e+00 0.0000e+00
       15  1   10   10    0    0 +1.7261245421e+02 -6.5716540583e+01 -8.3116988884e+01 2.0253927248e+02 0.0000000000e+00 0.0000e+00 -1.0000e+00
      -16  1   10   10    0    0 +6.6079128078e+01 -3.9741792999e+01 -9.9697330391e+01 1.2603737130e+02 0.0000000000e+00 0.0000e+00 1.0000e+00
<scales pt_clust_1="13000.0" pt_clust_2="13000.0" pt_clust_3="13000.0" pt_clust_4="13000.0" pt_clust_5="13000.0" pt_clust_6="13000.0"></scales>
<mgrwt>
<rscale>  2 0.38287624e+03</rscale>
<asrwt>0</asrwt>
<pdfrwt beam="1">  1        1 0.12705845e+00 0.38287624e+03</pdfrwt>
<pdfrwt beam="2">  1       -1 0.28570464e-01 0.38287624e+03</pdfrwt>
<totfact> 0.26556404e+00</totfact>
</mgrwt>
<clustering>
<clus scale="  724.031">  3  4 -1 -1</clus>
<clus scale="  382.876">  2  3  1 -1</clus>
</clustering>
<rwgt>
<wgt id='reference_point'> +1.1579678e+02 </wgt>
<wgt id='eftrwgt0_ctg_-0.754_cqq83_2.978_cqq81_11.175_cqu8_-0.722_cqd8_-22.551_ctq8_11.076_ctu8_-15.131_ctd8_20.128_cqq13_0.321_cqq11_-6.675_cqu1_-3.516_cqd1_6.151_ctq1_5.402_ctu1_-8.742_ctd1_5.367'> +3.8669378e+01 </wgt>
<wgt id='eftrwgt1_ctg_-1.195_cqq83_-15.761_cqq81_-4.235_cqu8_-15.499_cqd8_-10.228_ctq8_-0.966_ctu8_-17.272_ctd8_-16.58_cqq13_-4.893_cqq11_4.278_cqu1_-0.839_cqd1_-4.333_ctq1_2.613_ctu1_-1.417_ctd1_-2.816'> +5.7917419e+01 </wgt>
<wgt id='eftrwgt2_ctg_-1.383_cqq83_5.883_cqq81_-5.515_cqu8_2.394_cqd8_-9.03_ctq8_-0.054_ctu8_-11.517_ctd8_-10.825_cqq13_-0.011_cqq11_4.192_cqu1_6.747_cqd1_8.549_ctq1_7.513_ctu1_-7.841_ctd1_7.605'> +1.0013475e+02 </wgt>
<wgt id='eftrwgt3_ctg_0.83_cqq83_7.564_cqq81_-4.758_cqu8_11.03_cqd8_2.018_ctq8_13.609_ctu8_6.693_ctd8_12.801_cqq13_1.059_cqq11_-4.128_cqu1_0.962_cqd1_4.274_ctq1_8.055_ctu1_-10.409_ctd1_-1.438'> +3.0467523e+01 </wgt>
<wgt id='eftrwgt4_ctg_0.635_cqq83_-11.713_cqq81_0.383_cqu8_10.984_cqd8_-20.924_ctq8_-2.091_ctu8_5.555_ctd8_1.514_cqq13_3.429_cqq11_-0.162_cqu1_-10.649_cqd1_5.475_ctq1_5.872_ctu1_-1.687_ctd1_-8.071'> +1.4424086e+01 </wgt>
<wgt id='eftrwgt5_ctg_0.29_cqq83_4.054_cqq81_-1.527_cqu8_-4.305_cqd8_-20.381_ctq8_12.02_ctu8_-17.198_ctd8_4.416_cqq13_-0.765_cqq11_-1.818_cqu1_-0.276_cqd1_12.045_ctq1_-6.626_ctu1_4.803_ctd1_5.994'> +1.0306856e+02 </wgt>
<wgt id='eftrwgt6_ctg_0.363_cqq83_-5.38_cqq81_10.485_cqu8_-11.932_cqd8_-4.948_ctq8_9.185_ctu8_-12.064_ctd8_17.315_cqq13_-0.222_cqq11_-6.441_cqu1_-7.804_cqd1_-9.036_ctq1_-7.458_ctu1_9.293_ctd1_3.977'> +2.6700817e+01 </wgt>
<wgt id='eftrwgt7_ctg_-1.197_cqq83_-4.451_cqq81_7.597_cqu8_-7.443_cqd8_22.122_ctq8_3.031_ctu8_-12.259_ctd8_16.154_cqq13_-6.717_cqq11_-0.945_cqu1_5.096_cqd1_2.249_ctq1_-0.68_ctu1_-7.751_ctd1_8.44'> +1.3335153e+02 </wgt>
<wgt id='eftrwgt8_ctg_0.542_cqq83_-14.102_cqq81_-2.643_cqu8_18.837_cqd8_-13.941_ctq8_-13.421_ctu8_13.125_ctd8_-6.068_cqq13_-0.748_cqq11_-1.138_cqu1_3.707_cqd1_-4.4_ctq1_2.065_ctu1_5.13_ctd1_4.025'> +1.4032943e+01 </wgt>
<wgt id='eftrwgt9_ctg_1.074_cqq83_4.736_cqq81_-13.002_cqu8_-15.389_cqd8_0.91_ctq8_-9.328_ctu8_7.624_ctd8_-22.019_cqq13_3.75_cqq11_-2.977_cqu1_-3.02_cqd1_-13.923_ctq1_-7.186_ctu1_2.633_ctd1_-7.896'> +1.5233994e+02 </wgt>
<wgt id='eftrwgt10_ctg_1.238_cqq83_-17.533_cqq81_12.633_cqu8_3.116_cqd8_9.117_ctq8_-4.456_ctu8_0.149_ctd8_15.76_cqq13_-4.569_cqq11_4.155_cqu1_6.051_cqd1_-8.105_ctq1_0.824_ctu1_0.75_ctd1_6.587'> +6.6580470e+01 </wgt>
<wgt id='eftrwgt11_ctg_-1.233_cqq83_-17.319_cqq81_-5.312_cqu8_16.53_cqd8_-9.607_ctq8_-3.402_ctu8_-16.447_ctd8_-22.15_cqq13_-0.265_cqq11_4.394_cqu1_-0.387_cqd1_0.421_ctq1_2.017_ctu1_-6.772_ctd1_6.873'> +7.7008857e+01 </wgt>
<wgt id='eftrwgt12_ctg_0.408_cqq83_-9.97_cqq81_3.05_cqu8_8.428_cqd8_-10.45_ctq8_-4.549_ctu8_7.41_ctd8_-18.252_cqq13_4.276_cqq11_0.305_cqu1_-4.657_cqd1_-5.86_ctq1_4.293_ctu1_-6.686_ctd1_-6.47'> +8.0749973e+01 </wgt>
<wgt id='eftrwgt13_ctg_1.091_cqq83_16.651_cqq81_9.034_cqu8_-17.068_cqd8_-16.41_ctq8_5.505_ctu8_-6.023_ctd8_-19.606_cqq13_-1.427_cqq11_2.94_cqu1_-7.645_cqd1_-9.373_ctq1_-6.218_ctu1_1.987_ctd1_-10.94'> +1.7605634e+02 </wgt>
<wgt id='eftrwgt14_ctg_-0.901_cqq83_-3.298_cqq81_-0.028_cqu8_-17.181_cqd8_-17.858_ctq8_-13.488_ctu8_-10.256_ctd8_-0.921_cqq13_4.443_cqq11_-0.633_cqu1_-9.228_cqd1_11.328_ctq1_-0.213_ctu1_-0.551_ctd1_-5.789'> +2.7704841e+01 </wgt>
<wgt id='eftrwgt15_ctg_1.026_cqq83_10.852_cqq81_-7.218_cqu8_6.384_cqd8_16.276_ctq8_-4.737_ctu8_-13.404_ctd8_1.733_cqq13_7.315_cqq11_-8.101_cqu1_-2.738_cqd1_7.548_ctq1_8.479_ctu1_-6.738_ctd1_-5.539'> +4.0086168e+01 </wgt>
<wgt id='eftrwgt16_ctg_-0.132_cqq83_-16.656_cqq81_4.305_cqu8_-12.062_cqd8_4.31_ctq8_13.615_ctu8_3.27_ctd8_11.552_cqq13_-1.799_cqq11_7.423_cqu1_6.843_cqd1_13.535_ctq1_0.146_ctu1_7.054_ctd1_9.686'> +1.8180738e+02 </wgt>
<wgt id='eftrwgt17_ctg_0.712_cqq83_-6.61_cqq81_-4.301_cqu8_-1.403_cqd8_6.303_ctq8_-4.86_ctu8_3.128_ctd8_-14.844_cqq13_0.039_cqq11_-4.957_cqu1_2.629_cqd1_-12.532_ctq1_4.939_ctu1_-4.209_ctd1_-3.655'> +7.6874370e+01 </wgt>
<wgt id='eftrwgt18_ctg_-1.35_cqq83_-11.68_cqq81_4.439_cqu8_13.372_cqd8_-0.653_ctq8_5.688_ctu8_0.67_ctd8_-7.709_cqq13_-5.475_cqq11_-5.399_cqu1_3.601_cqd1_-8.439_ctq1_1.117_ctu1_-0.006_ctd1_13.614'> +1.1654303e+01 </wgt>
<wgt id='eftrwgt19_ctg_0.098_cqq83_15.517_cqq81_-5.712_cqu8_-4.013_cqd8_-7.836_ctq8_-1.046_ctu8_-12.063_ctd8_6.039_cqq13_-3.557_cqq11_7.181_cqu1_6.996_cqd1_-3.116_ctq1_1.869_ctu1_1.545_ctd1_-10.959'> +5.8114912e+01 </wgt>
<wgt id='eftrwgt20_ctg_0.401_cqq83_8.943_cqq81_9.36_cqu8_14.22_cqd8_-14.886_ctq8_8.313_ctu8_5.302_ctd8_-10.568_cqq13_-2.406_cqq11_5.185_cqu1_-6.752_cqd1_-3.344_ctq1_-0.322_ctu1_-1.749_ctd1_2.241'> +2.7546739e+01 </wgt>
<wgt id='eftrwgt21_ctg_0.263_cqq83_-7.003_cqq81_9.705_cqu8_13.582_cqd8_19.058_ctq8_12.946_ctu8_6.424_ctd8_17.248_cqq13_-4.887_cqq11_-3.405_cqu1_10.633_cqd1_-6.948_ctq1_5.694_ctu1_-6.922_ctd1_1.277'> +1.1786757e+02 </wgt>
<wgt id='eftrwgt22_ctg_0.627_cqq83_-17.281_cqq81_-4.961_cqu8_16.938_cqd8_22.735_ctq8_-1.208_ctu8_-3.511_ctd8_-5.122_cqq13_5.387_cqq11_-4.565_cqu1_7.804_cqd1_11.098_ctq1_-1.5_ctu1_8.736_ctd1_13.194'> +2.0663482e+02 </wgt>
<wgt id='eftrwgt23_ctg_-0.648_cqq83_15.811_cqq81_12.009_cqu8_-18.949_cqd8_0.783_ctq8_-3.059_ctu8_-17.702_ctd8_-6.711_cqq13_-4.356_cqq11_3.652_cqu1_-8.368_cqd1_-4.016_ctq1_2.411_ctu1_3.109_ctd1_4.001'> +8.1499174e-01 </wgt>
<wgt id='eftrwgt24_ctg_0.279_cqq83_3.419_cqq81_-12.348_cqu8_-3.685_cqd8_-7.428_ctq8_10.986_ctu8_-5.15_ctd8_-17.732_cqq13_-2.497_cqq11_-5.647_cqu1_0.002_cqd1_-4.035_ctq1_-3.93_ctu1_-1.854_ctd1_8.352'> +3.2640446e+01 </wgt>
<wgt id='eftrwgt25_ctg_1.257_cqq83_8.7_cqq81_-13.787_cqu8_1.396_cqd8_-4.553_ctq8_0.437_ctu8_6.957_ctd8_15.293_cqq13_7.476_cqq11_-5.974_cqu1_-3.383_cqd1_-2.371_ctq1_-0.219_ctu1_2.622_ctd1_-7.856'> +5.1026783e+01 </wgt>
<wgt id='eftrwgt26_ctg_-1.323_cqq83_-5.612_cqq81_0.616_cqu8_6.632_cqd8_-3.336_ctq8_13.782_ctu8_-3.939_ctd8_-15.742_cqq13_2.848_cqq11_5.501_cqu1_-1.125_cqd1_-13.284_ctq1_-0.806_ctu1_-0.98_ctd1_-3.316'> +1.0213778e+02 </wgt>
<wgt id='eftrwgt27_ctg_-1.062_cqq83_-5.785_cqq81_-3.069_cqu8_7.318_cqd8_-18.47_ctq8_-5.182_ctu8_-7.369_ctd8_-7.449_cqq13_-0.119_cqq11_-7.366_cqu1_-4.956_cqd1_-13.113_ctq1_-1.612_ctu1_-8.864_ctd1_-9.975'> +1.9441003e+02 </wgt>
<wgt id='eftrwgt28_ctg_0.241_cqq83_-10.317_cqq81_-13.275_cqu8_-8.248_cqd8_-17.794_ctq8_-12.823_ctu8_-16.47_ctd8_-4.449_cqq13_-2.362_cqq11_4.11_cqu1_-10.775_cqd1_-8.582_ctq1_2.037_ctu1_-10.4_ctd1_1.059'> +3.6723384e+01 </wgt>
<wgt id='eftrwgt29_ctg_0.186_cqq83_-14.559_cqq81_-7.088_cqu8_-18.724_cqd8_-0.974_ctq8_-0.831_ctu8_6.546_ctd8_-21.38_cqq13_-1.637_cqq11_2.85_cqu1_2.42_cqd1_-0.935_ctq1_-8.07_ctu1_5.575_ctd1_0.549'> +2.0840738e+01 </wgt>
<wgt id='eftrwgt30_ctg_-1.395_cqq83_-10.203_cqq81_12.938_cqu8_3.137_cqd8_11.131_ctq8_9.079_ctu8_-0.374_ctd8_-23.313_cqq13_-4.383_cqq11_-1.0_cqu1_1.541_cqd1_2.342_ctq1_-4.241_ctu1_-4.162_ctd1_-12.306'> +3.7709738e+01 </wgt>
<wgt id='eftrwgt31_ctg_0.115_cqq83_-15.901_cqq81_-6.358_cqu8_-16.907_cqd8_-5.747_ctq8_2.066_ctu8_-12.966_ctd8_-16.328_cqq13_-3.096_cqq11_2.684_cqu1_-8.352_cqd1_-6.211_ctq1_2.511_ctu1_5.799_ctd1_9.554'> +2.3813168e+01 </wgt>
<wgt id='eftrwgt32_ctg_1.117_cqq83_2.704_cqq81_7.787_cqu8_-16.533_cqd8_8.904_ctq8_10.253_ctu8_2.612_ctd8_4.645_cqq13_-5.493_cqq11_2.812_cqu1_-7.509_cqd1_-3.19_ctq1_-6.22_ctu1_5.276_ctd1_5.86'> +2.8700969e+01 </wgt>
<wgt id='eftrwgt33_ctg_0.209_cqq83_-8.091_cqq81_-11.607_cqu8_-16.123_cqd8_-8.064_ctq8_-3.29_ctu8_-14.767_ctd8_-13.018_cqq13_-5.739_cqq11_0.542_cqu1_-1.411_cqd1_-8.179_ctq1_-5.997_ctu1_-7.343_ctd1_12.169'> +2.2467441e+01 </wgt>
<wgt id='eftrwgt34_ctg_-1.122_cqq83_6.387_cqq81_-1.268_cqu8_-5.867_cqd8_-9.336_ctq8_-2.052_ctu8_-17.13_ctd8_21.742_cqq13_0.581_cqq11_5.886_cqu1_-10.133_cqd1_-11.29_ctq1_-6.71_ctu1_3.942_ctd1_9.713'> +1.2738370e+01 </wgt>
<wgt id='eftrwgt35_ctg_-1.321_cqq83_10.781_cqq81_5.96_cqu8_-16.967_cqd8_5.511_ctq8_-3.29_ctu8_-3.816_ctd8_-14.387_cqq13_-5.938_cqq11_-2.941_cqu1_-5.98_cqd1_11.576_ctq1_0.788_ctu1_10.277_ctd1_-4.905'> +1.7273728e+01 </wgt>
<wgt id='eftrwgt36_ctg_-0.68_cqq83_-4.656_cqq81_2.64_cqu8_-5.091_cqd8_-6.267_ctq8_12.357_ctu8_4.141_ctd8_8.527_cqq13_4.229_cqq11_-0.357_cqu1_6.729_cqd1_-0.812_ctq1_5.304_ctu1_-6.109_ctd1_-13.243'> +5.8919378e+01 </wgt>
<wgt id='eftrwgt37_ctg_-1.287_cqq83_-9.3_cqq81_-1.066_cqu8_-15.272_cqd8_5.656_ctq8_0.824_ctu8_-7.129_ctd8_-5.439_cqq13_-7.864_cqq11_0.302_cqu1_3.094_cqd1_1.84_ctq1_-4.372_ctu1_-7.563_ctd1_2.217'> +4.8648309e+00 </wgt>
<wgt id='eftrwgt38_ctg_0.789_cqq83_2.618_cqq81_-0.896_cqu8_4.006_cqd8_12.013_ctq8_-9.44_ctu8_-16.781_ctd8_-6.655_cqq13_-5.548_cqq11_2.529_cqu1_7.52_cqd1_-4.256_ctq1_5.745_ctu1_0.798_ctd1_7.829'> +1.1956141e+01 </wgt>
<wgt id='eftrwgt39_ctg_0.721_cqq83_1.632_cqq81_7.373_cqu8_-0.631_cqd8_4.104_ctq8_12.802_ctu8_-10.868_ctd8_-5.968_cqq13_-1.832_cqq11_-3.336_cqu1_-4.17_cqd1_-6.056_ctq1_-3.676_ctu1_5.679_ctd1_-9.027'> +6.7279849e+01 </wgt>
<wgt id='eftrwgt40_ctg_-0.362_cqq83_-1.589_cqq81_6.197_cqu8_-18.27_cqd8_7.832_ctq8_-9.399_ctu8_-6.455_ctd8_10.547_cqq13_-4.378_cqq11_5.514_cqu1_-8.215_cqd1_4.889_ctq1_5.265_ctu1_10.009_ctd1_3.422'> +4.9967057e+01 </wgt>
<wgt id='eftrwgt41_ctg_0.658_cqq83_-10.403_cqq81_3.211_cqu8_-2.337_cqd8_17.509_ctq8_6.996_ctu8_-1.761_ctd8_-2.923_cqq13_7.515_cqq11_-0.097_cqu1_0.074_cqd1_12.92_ctq1_-6.01_ctu1_-8.626_ctd1_2.326'> +9.4121511e+01 </wgt>
<wgt id='eftrwgt42_ctg_0.239_cqq83_-0.972_cqq81_-1.122_cqu8_-17.342_cqd8_-7.199_ctq8_-12.68_ctu8_1.247_ctd8_17.533_cqq13_-6.465_cqq11_-5.436_cqu1_9.489_cqd1_-0.985_ctq1_8.129_ctu1_-5.418_ctd1_5.104'> +1.9320012e+01 </wgt>
<wgt id='eftrwgt43_ctg_-0.649_cqq83_12.017_cqq81_-8.81_cqu8_-11.947_cqd8_-0.617_ctq8_-8.389_ctu8_-11.126_ctd8_-23.747_cqq13_-2.837_cqq11_5.496_cqu1_4.701_cqd1_4.955_ctq1_2.49_ctu1_2.683_ctd1_-7.631'> +3.3392065e+01 </wgt>
<wgt id='eftrwgt44_ctg_0.171_cqq83_12.009_cqq81_1.908_cqu8_4.651_cqd8_-17.53_ctq8_4.385_ctu8_9.354_ctd8_6.605_cqq13_0.349_cqq11_-3.295_cqu1_-5.85_cqd1_-13.524_ctq1_0.629_ctu1_-6.984_ctd1_13.334'> +2.7703237e+00 </wgt>
<wgt id='eftrwgt45_ctg_1.117_cqq83_-1.134_cqq81_0.846_cqu8_-17.819_cqd8_7.834_ctq8_-1.016_ctu8_17.048_ctd8_-16.169_cqq13_3.138_cqq11_-2.054_cqu1_-10.535_cqd1_-6.766_ctq1_2.47_ctu1_6.02_ctd1_11.267'> +6.0718741e+00 </wgt>
<wgt id='eftrwgt46_ctg_0.852_cqq83_-5.375_cqq81_-1.252_cqu8_-6.421_cqd8_17.384_ctq8_4.252_ctu8_6.891_ctd8_10.51_cqq13_-4.608_cqq11_7.589_cqu1_-6.678_cqd1_11.188_ctq1_-3.189_ctu1_-10.063_ctd1_0.955'> +1.1769841e+02 </wgt>
<wgt id='eftrwgt47_ctg_0.672_cqq83_10.633_cqq81_-10.436_cqu8_3.141_cqd8_5.015_ctq8_-11.403_ctu8_-4.418_ctd8_-1.92_cqq13_0.491_cqq11_-8.212_cqu1_-0.701_cqd1_-0.931_ctq1_5.075_ctu1_5.776_ctd1_-9.187'> +3.4766504e+01 </wgt>
<wgt id='eftrwgt48_ctg_0.097_cqq83_-13.235_cqq81_3.083_cqu8_-6.992_cqd8_-21.927_ctq8_-1.972_ctu8_12.828_ctd8_-23.378_cqq13_1.548_cqq11_-7.292_cqu1_-7.809_cqd1_-3.663_ctq1_-0.091_ctu1_3.906_ctd1_0.689'> +1.1192480e+02 </wgt>
<wgt id='eftrwgt49_ctg_1.029_cqq83_-0.471_cqq81_-7.658_cqu8_-14.403_cqd8_16.435_ctq8_-10.202_ctu8_-12.269_ctd8_-13.394_cqq13_-1.09_cqq11_4.914_cqu1_-4.324_cqd1_0.827_ctq1_-4.544_ctu1_-0.962_ctd1_9.864'> +3.9217898e+01 </wgt>
<wgt id='eftrwgt50_ctg_-0.665_cqq83_-14.242_cqq81_-8.115_cqu8_4.63_cqd8_10.452_ctq8_-13.832_ctu8_-13.909_ctd8_-10.071_cqq13_-2.706_cqq11_1.201_cqu1_0.148_cqd1_-0.781_ctq1_-6.102_ctu1_-6.349_ctd1_6.964'> +1.1620637e+01 </wgt>
<wgt id='eftrwgt51_ctg_-0.787_cqq83_-15.261_cqq81_8.809_cqu8_-2.155_cqd8_-17.025_ctq8_-6.971_ctu8_10.751_ctd8_-10.297_cqq13_-0.617_cqq11_7.049_cqu1_-7.986_cqd1_-2.061_ctq1_0.449_ctu1_6.857_ctd1_-13.813'> +1.1483831e+02 </wgt>
<wgt id='eftrwgt52_ctg_0.862_cqq83_17.48_cqq81_4.698_cqu8_8.08_cqd8_9.692_ctq8_3.485_ctu8_11.755_ctd8_-3.559_cqq13_6.645_cqq11_2.713_cqu1_-8.115_cqd1_8.608_ctq1_-6.273_ctu1_7.111_ctd1_5.866'> +7.0744379e+01 </wgt>
<wgt id='eftrwgt53_ctg_-0.903_cqq83_3.892_cqq81_-1.362_cqu8_-12.339_cqd8_-12.919_ctq8_2.258_ctu8_8.165_ctd8_16.95_cqq13_-4.352_cqq11_1.546_cqu1_7.695_cqd1_11.734_ctq1_2.3_ctu1_9.781_ctd1_1.838'> +5.5849250e+01 </wgt>
<wgt id='eftrwgt54_ctg_-0.522_cqq83_-0.949_cqq81_-0.037_cqu8_14.405_cqd8_-4.088_ctq8_-5.643_ctu8_8.684_ctd8_-21.06_cqq13_-6.966_cqq11_-5.093_cqu1_-4.897_cqd1_2.455_ctq1_-3.435_ctu1_3.57_ctd1_-7.932'> +4.1404119e+01 </wgt>
<wgt id='eftrwgt55_ctg_-0.222_cqq83_1.213_cqq81_10.848_cqu8_-14.188_cqd8_-19.129_ctq8_4.966_ctu8_6.833_ctd8_-10.208_cqq13_6.393_cqq11_2.922_cqu1_9.268_cqd1_9.372_ctq1_3.58_ctu1_5.027_ctd1_13.963'> +2.0216378e+02 </wgt>
<wgt id='eftrwgt56_ctg_-0.064_cqq83_-13.896_cqq81_-9.146_cqu8_-12.936_cqd8_6.184_ctq8_-9.142_ctu8_7.671_ctd8_-23.063_cqq13_-5.638_cqq11_0.314_cqu1_3.549_cqd1_13.313_ctq1_7.463_ctu1_-2.827_ctd1_4.274'> +1.0118966e+02 </wgt>
<wgt id='eftrwgt57_ctg_0.55_cqq83_-0.366_cqq81_13.131_cqu8_-11.082_cqd8_-6.326_ctq8_-1.457_ctu8_-10.801_ctd8_-1.042_cqq13_-6.705_cqq11_-3.081_cqu1_2.128_cqd1_13.722_ctq1_-3.878_ctu1_8.438_ctd1_-10.644'> +3.0300448e+00 </wgt>
<wgt id='eftrwgt58_ctg_-0.739_cqq83_-1.927_cqq81_-4.498_cqu8_-7.655_cqd8_-12.724_ctq8_7.311_ctu8_0.6_ctd8_-24.282_cqq13_7.046_cqq11_-1.157_cqu1_2.74_cqd1_1.196_ctq1_0.456_ctu1_10.57_ctd1_6.47'> +9.5781251e+01 </wgt>
<wgt id='eftrwgt59_ctg_-0.809_cqq83_6.461_cqq81_5.164_cqu8_7.348_cqd8_-10.049_ctq8_-9.039_ctu8_11.156_ctd8_17.765_cqq13_2.406_cqq11_-3.454_cqu1_-8.251_cqd1_3.987_ctq1_-2.608_ctu1_-5.906_ctd1_-13.122'> +3.0414085e+01 </wgt>
<wgt id='eftrwgt60_ctg_0.321_cqq83_5.49_cqq81_9.481_cqu8_6.2_cqd8_6.877_ctq8_-2.766_ctu8_2.591_ctd8_5.007_cqq13_4.948_cqq11_-5.846_cqu1_1.836_cqd1_2.37_ctq1_3.758_ctu1_-2.994_ctd1_-9.755'> +3.3849450e+01 </wgt>
<wgt id='eftrwgt61_ctg_0.309_cqq83_13.504_cqq81_0.142_cqu8_15.303_cqd8_-11.281_ctq8_-13.865_ctu8_10.736_ctd8_-18.349_cqq13_0.658_cqq11_-2.407_cqu1_-8.659_cqd1_5.691_ctq1_0.834_ctu1_-7.918_ctd1_8.27'> +9.6936195e+01 </wgt>
<wgt id='eftrwgt62_ctg_-0.755_cqq83_1.09_cqq81_-2.059_cqu8_14.895_cqd8_0.941_ctq8_-0.117_ctu8_-3.607_ctd8_-7.303_cqq13_2.029_cqq11_-6.951_cqu1_-7.372_cqd1_-8.246_ctq1_-0.626_ctu1_-0.403_ctd1_-6.554'> +6.5003454e+01 </wgt>
<wgt id='eftrwgt63_ctg_-1.189_cqq83_3.274_cqq81_5.97_cqu8_-8.688_cqd8_14.017_ctq8_2.273_ctu8_14.433_ctd8_-19.069_cqq13_-4.403_cqq11_3.367_cqu1_-4.681_cqd1_10.796_ctq1_-4.846_ctu1_1.054_ctd1_-13.006'> +2.4612913e+00 </wgt>
<wgt id='eftrwgt64_ctg_0.949_cqq83_12.237_cqq81_-2.266_cqu8_-10.878_cqd8_-7.642_ctq8_-6.632_ctu8_-5.91_ctd8_22.286_cqq13_-6.42_cqq11_-0.839_cqu1_-9.914_cqd1_11.165_ctq1_5.728_ctu1_-2.834_ctd1_-11.273'> +2.8446259e+01 </wgt>
<wgt id='eftrwgt65_ctg_-1.077_cqq83_6.554_cqq81_-5.771_cqu8_-11.958_cqd8_-5.175_ctq8_6.893_ctu8_-15.271_ctd8_-11.605_cqq13_-2.625_cqq11_5.619_cqu1_-3.062_cqd1_8.844_ctq1_8.759_ctu1_7.743_ctd1_-9.404'> +1.5561632e+01 </wgt>
<wgt id='eftrwgt66_ctg_0.739_cqq83_-0.73_cqq81_-3.942_cqu8_0.197_cqd8_-20.568_ctq8_-3.855_ctu8_3.62_ctd8_-1.663_cqq13_1.279_cqq11_-5.868_cqu1_-1.596_cqd1_4.61_ctq1_-0.985_ctu1_5.278_ctd1_1.935'> +2.9978685e+01 </wgt>
<wgt id='eftrwgt67_ctg_-1.144_cqq83_-9.411_cqq81_11.632_cqu8_13.794_cqd8_19.35_ctq8_-9.734_ctu8_17.462_ctd8_-9.013_cqq13_6.095_cqq11_1.653_cqu1_10.71_cqd1_-11.055_ctq1_7.571_ctu1_0.484_ctd1_-1.685'> +5.5862570e+01 </wgt>
<wgt id='eftrwgt68_ctg_0.408_cqq83_3.73_cqq81_-12.673_cqu8_-15.054_cqd8_23.598_ctq8_0.269_ctu8_8.53_ctd8_-19.396_cqq13_1.648_cqq11_6.789_cqu1_-10.541_cqd1_-5.767_ctq1_-2.558_ctu1_-8.764_ctd1_1.857'> +9.9164569e+00 </wgt>
<wgt id='eftrwgt69_ctg_0.663_cqq83_-13.808_cqq81_11.681_cqu8_8.175_cqd8_23.585_ctq8_-6.295_ctu8_5.707_ctd8_-2.004_cqq13_2.652_cqq11_0.351_cqu1_-4.864_cqd1_13.53_ctq1_-5.642_ctu1_0.492_ctd1_8.029'> +1.8333533e+02 </wgt>
<wgt id='eftrwgt70_ctg_-0.454_cqq83_-0.455_cqq81_-2.236_cqu8_8.99_cqd8_14.139_ctq8_-10.102_ctu8_-6.093_ctd8_-2.425_cqq13_3.095_cqq11_-0.462_cqu1_-1.855_cqd1_11.152_ctq1_2.965_ctu1_0.951_ctd1_-6.03'> +2.1398739e+01 </wgt>
<wgt id='eftrwgt71_ctg_-0.477_cqq83_-16.758_cqq81_13.224_cqu8_13.232_cqd8_-5.763_ctq8_9.379_ctu8_-10.048_ctd8_-23.022_cqq13_4.391_cqq11_-6.178_cqu1_-8.099_cqd1_-8.009_ctq1_-1.03_ctu1_-2.674_ctd1_-1.681'> +7.1088972e+01 </wgt>
<wgt id='eftrwgt72_ctg_0.622_cqq83_2.696_cqq81_-10.207_cqu8_5.957_cqd8_7.886_ctq8_4.197_ctu8_8.121_ctd8_-20.035_cqq13_2.851_cqq11_-6.744_cqu1_-10.799_cqd1_2.202_ctq1_-7.508_ctu1_-1.701_ctd1_8.892'> +3.8725992e+01 </wgt>
<wgt id='eftrwgt73_ctg_-0.493_cqq83_10.355_cqq81_1.302_cqu8_-9.783_cqd8_-15.531_ctq8_-10.402_ctu8_5.144_ctd8_6.559_cqq13_5.572_cqq11_-0.688_cqu1_-7.729_cqd1_4.564_ctq1_-4.037_ctu1_3.296_ctd1_-5.207'> +2.6177745e+00 </wgt>
<wgt id='eftrwgt74_ctg_-1.313_cqq83_-14.474_cqq81_-0.652_cqu8_2.59_cqd8_16.401_ctq8_2.461_ctu8_-12.258_ctd8_-5.822_cqq13_6.708_cqq11_-5.017_cqu1_7.523_cqd1_10.388_ctq1_-3.975_ctu1_-5.142_ctd1_-12.623'> +9.7585069e+00 </wgt>
<wgt id='eftrwgt75_ctg_-0.166_cqq83_14.655_cqq81_-13.165_cqu8_13.182_cqd8_17.65_ctq8_8.035_ctu8_-7.41_ctd8_5.594_cqq13_-1.583_cqq11_4.47_cqu1_6.793_cqd1_9.148_ctq1_6.872_ctu1_4.564_ctd1_-3.17'> +5.6970738e+01 </wgt>
<wgt id='eftrwgt76_ctg_0.607_cqq83_-7.784_cqq81_0.889_cqu8_-5.808_cqd8_-18.52_ctq8_-10.702_ctu8_6.093_ctd8_5.795_cqq13_-4.86_cqq11_6.059_cqu1_5.977_cqd1_-3.82_ctq1_-0.432_ctu1_0.091_ctd1_12.704'> +2.6410214e+01 </wgt>
<wgt id='eftrwgt77_ctg_-0.008_cqq83_-13.549_cqq81_-2.371_cqu8_-17.548_cqd8_17.783_ctq8_-12.818_ctu8_-10.851_ctd8_-11.002_cqq13_-7.936_cqq11_-0.409_cqu1_4.737_cqd1_0.464_ctq1_-0.138_ctu1_-4.15_ctd1_2.286'> +9.6707860e+00 </wgt>
<wgt id='eftrwgt78_ctg_0.693_cqq83_-17.302_cqq81_-6.475_cqu8_7.814_cqd8_3.71_ctq8_7.916_ctu8_-4.439_ctd8_21.712_cqq13_-1.558_cqq11_5.054_cqu1_2.274_cqd1_7.748_ctq1_-4.741_ctu1_4.163_ctd1_-9.021'> +6.3129914e+01 </wgt>
<wgt id='eftrwgt79_ctg_-1.245_cqq83_-11.588_cqq81_7.305_cqu8_-18.227_cqd8_-8.677_ctq8_11.343_ctu8_2.055_ctd8_-10.604_cqq13_4.361_cqq11_6.251_cqu1_4.537_cqd1_-0.734_ctq1_3.998_ctu1_-6.261_ctd1_-5.045'> +3.1588321e+01 </wgt>
<wgt id='eftrwgt80_ctg_-0.18_cqq83_-10.265_cqq81_2.0_cqu8_-7.281_cqd8_10.418_ctq8_-8.392_ctu8_-11.821_ctd8_14.446_cqq13_4.32_cqq11_-7.909_cqu1_-1.266_cqd1_-1.485_ctq1_7.422_ctu1_-9.567_ctd1_-7.015'> +7.3281259e+01 </wgt>
<wgt id='eftrwgt81_ctg_0.953_cqq83_-15.744_cqq81_-8.719_cqu8_4.233_cqd8_5.5_ctq8_9.427_ctu8_-3.148_ctd8_13.913_cqq13_7.844_cqq11_-2.685_cqu1_-10.526_cqd1_-11.474_ctq1_1.94_ctu1_-0.862_ctd1_-11.271'> +1.9366497e+02 </wgt>
<wgt id='eftrwgt82_ctg_0.709_cqq83_-3.094_cqq81_5.584_cqu8_5.962_cqd8_-12.068_ctq8_7.256_ctu8_-14.777_ctd8_-14.389_cqq13_-4.278_cqq11_8.12_cqu1_0.179_cqd1_-1.651_ctq1_-8.145_ctu1_2.242_ctd1_-10.245'> +6.9088320e+01 </wgt>
<wgt id='eftrwgt83_ctg_0.687_cqq83_-1.156_cqq81_3.18_cqu8_-3.335_cqd8_-0.404_ctq8_-5.778_ctu8_6.62_ctd8_-17.153_cqq13_-5.912_cqq11_5.654_cqu1_-1.269_cqd1_8.004_ctq1_-1.868_ctu1_0.845_ctd1_4.292'> +5.3218020e+01 </wgt>
<wgt id='eftrwgt84_ctg_-0.183_cqq83_-0.308_cqq81_0.037_cqu8_14.309_cqd8_-5.805_ctq8_9.893_ctu8_-5.881_ctd8_-1.437_cqq13_-2.017_cqq11_-6.656_cqu1_-1.67_cqd1_-5.98_ctq1_-8.794_ctu1_2.683_ctd1_9.412'> +4.3272476e+00 </wgt>
<wgt id='eftrwgt85_ctg_-0.942_cqq83_15.035_cqq81_13.373_cqu8_-5.07_cqd8_16.019_ctq8_-8.366_ctu8_14.649_ctd8_22.16_cqq13_-4.681_cqq11_6.562_cqu1_-1.143_cqd1_-10.901_ctq1_-6.626_ctu1_7.385_ctd1_-3.635'> +1.6435349e+02 </wgt>
<wgt id='eftrwgt86_ctg_-0.142_cqq83_-2.994_cqq81_12.042_cqu8_8.306_cqd8_-8.182_ctq8_-12.155_ctu8_-0.571_ctd8_11.633_cqq13_-5.051_cqq11_1.519_cqu1_-1.733_cqd1_9.994_ctq1_-6.524_ctu1_4.94_ctd1_2.118'> +4.5998218e+01 </wgt>
<wgt id='eftrwgt87_ctg_0.929_cqq83_16.258_cqq81_4.432_cqu8_11.37_cqd8_2.732_ctq8_-0.209_ctu8_11.238_ctd8_0.002_cqq13_-3.184_cqq11_5.425_cqu1_-3.268_cqd1_11.628_ctq1_2.342_ctu1_-8.392_ctd1_13.454'> +1.8858835e+02 </wgt>
<wgt id='eftrwgt88_ctg_0.663_cqq83_-0.312_cqq81_4.634_cqu8_13.091_cqd8_20.152_ctq8_-11.08_ctu8_10.132_ctd8_8.016_cqq13_2.666_cqq11_-0.154_cqu1_10.589_cqd1_-1.792_ctq1_-0.235_ctu1_-1.608_ctd1_11.236'> +9.9878887e+01 </wgt>
<wgt id='eftrwgt89_ctg_-0.7_cqq83_-8.489_cqq81_-4.248_cqu8_-16.694_cqd8_11.319_ctq8_10.136_ctu8_16.621_ctd8_-12.449_cqq13_5.869_cqq11_0.2_cqu1_7.255_cqd1_6.776_ctq1_-7.91_ctu1_7.893_ctd1_-13.519'> +1.3332752e+01 </wgt>
<wgt id='eftrwgt90_ctg_1.035_cqq83_-14.726_cqq81_-10.269_cqu8_8.762_cqd8_-16.804_ctq8_-12.281_ctu8_-9.071_ctd8_-18.776_cqq13_-0.931_cqq11_-5.226_cqu1_2.228_cqd1_0.749_ctq1_4.043_ctu1_-9.625_ctd1_12.055'> +1.0245506e+02 </wgt>
<wgt id='eftrwgt91_ctg_0.582_cqq83_7.693_cqq81_-11.295_cqu8_-2.266_cqd8_14.634_ctq8_4.883_ctu8_17.79_ctd8_11.844_cqq13_-6.479_cqq11_-4.102_cqu1_2.603_cqd1_-3.346_ctq1_-0.515_ctu1_-6.838_ctd1_-11.52'> +1.3025798e+02 </wgt>
<wgt id='eftrwgt92_ctg_-1.029_cqq83_4.889_cqq81_-11.405_cqu8_13.309_cqd8_-14.979_ctq8_-5.195_ctu8_6.668_ctd8_-24.798_cqq13_5.441_cqq11_-0.506_cqu1_-0.753_cqd1_-13.543_ctq1_-8.67_ctu1_-7.915_ctd1_-0.334'> +1.5129431e+02 </wgt>
<wgt id='eftrwgt93_ctg_1.323_cqq83_-4.365_cqq81_-4.298_cqu8_7.237_cqd8_-13.74_ctq8_-0.526_ctu8_-16.032_ctd8_-23.867_cqq13_-2.711_cqq11_8.204_cqu1_-9.783_cqd1_-13.301_ctq1_5.357_ctu1_-4.585_ctd1_3.272'> +8.9061711e+01 </wgt>
<wgt id='eftrwgt94_ctg_0.923_cqq83_-5.687_cqq81_-9.274_cqu8_-6.946_cqd8_-18.634_ctq8_-2.87_ctu8_-10.48_ctd8_20.825_cqq13_0.818_cqq11_7.594_cqu1_-2.651_cqd1_-8.209_ctq1_-4.375_ctu1_-0.453_ctd1_-11.307'> +1.1561409e+02 </wgt>
<wgt id='eftrwgt95_ctg_-0.353_cqq83_16.887_cqq81_4.599_cqu8_5.271_cqd8_15.7_ctq8_9.777_ctu8_16.081_ctd8_11.396_cqq13_-1.084_cqq11_-4.79_cqu1_-0.778_cqd1_12.085_ctq1_-5.567_ctu1_-7.961_ctd1_2.198'> +1.1853377e+02 </wgt>
<wgt id='eftrwgt96_ctg_0.041_cqq83_-5.923_cqq81_-2.955_cqu8_4.903_cqd8_20.523_ctq8_-10.841_ctu8_-16.659_ctd8_-20.437_cqq13_-0.715_cqq11_3.365_cqu1_7.617_cqd1_-8.653_ctq1_-1.465_ctu1_-1.263_ctd1_-7.434'> +7.6544123e+01 </wgt>
<wgt id='eftrwgt97_ctg_0.464_cqq83_6.456_cqq81_3.991_cqu8_-17.621_cqd8_21.05_ctq8_-3.045_ctu8_-1.74_ctd8_-0.321_cqq13_-0.503_cqq11_-7.685_cqu1_3.634_cqd1_-8.072_ctq1_-8.465_ctu1_4.741_ctd1_-8.716'> +1.2540633e+02 </wgt>
<wgt id='eftrwgt98_ctg_1.109_cqq83_-17.675_cqq81_-12.841_cqu8_-7.769_cqd8_-4.881_ctq8_8.767_ctu8_1.909_ctd8_-17.434_cqq13_5.514_cqq11_4.151_cqu1_-4.537_cqd1_10.377_ctq1_-0.495_ctu1_-9.214_ctd1_-2.18'> +3.5360160e+01 </wgt>
<wgt id='eftrwgt99_ctg_0.407_cqq83_-15.227_cqq81_3.076_cqu8_16.069_cqd8_-14.34_ctq8_-10.144_ctu8_-13.132_ctd8_6.768_cqq13_-2.495_cqq11_-6.097_cqu1_-9.127_cqd1_6.952_ctq1_6.568_ctu1_4.211_ctd1_13.935'> +1.2758044e+02 </wgt>
<wgt id='eftrwgt100_ctg_-0.701_cqq83_-0.048_cqq81_-13.163_cqu8_5.634_cqd8_10.956_ctq8_-0.744_ctu8_7.675_ctd8_11.807_cqq13_5.749_cqq11_-2.151_cqu1_8.431_cqd1_-6.532_ctq1_6.71_ctu1_1.894_ctd1_-1.052'> +5.7283103e+01 </wgt>
<wgt id='eftrwgt101_ctg_-0.35_cqq83_14.955_cqq81_13.247_cqu8_12.366_cqd8_-17.494_ctq8_13.947_ctu8_15.163_ctd8_24.316_cqq13_-3.799_cqq11_-3.202_cqu1_6.22_cqd1_12.06_ctq1_-5.011_ctu1_-3.243_ctd1_-4.236'> +2.4234677e+01 </wgt>
<wgt id='eftrwgt102_ctg_0.556_cqq83_-5.267_cqq81_-10.439_cqu8_2.364_cqd8_0.675_ctq8_-12.861_ctu8_-7.633_ctd8_-19.227_cqq13_7.964_cqq11_-4.314_cqu1_-5.928_cqd1_-4.03_ctq1_5.914_ctu1_5.907_ctd1_11.347'> +2.6899622e+01 </wgt>
<wgt id='eftrwgt103_ctg_0.125_cqq83_-12.646_cqq81_10.46_cqu8_18.952_cqd8_-13.688_ctq8_-9.243_ctu8_-14.143_ctd8_-9.888_cqq13_-8.119_cqq11_3.122_cqu1_8.657_cqd1_7.658_ctq1_-7.962_ctu1_3.664_ctd1_-2.552'> +3.1702426e+01 </wgt>
<wgt id='eftrwgt104_ctg_-0.763_cqq83_-3.804_cqq81_11.607_cqu8_-13.419_cqd8_14.176_ctq8_-9.066_ctu8_-15.02_ctd8_-4.358_cqq13_-1.193_cqq11_-6.481_cqu1_4.998_cqd1_-9.789_ctq1_1.777_ctu1_10.322_ctd1_2.64'> +2.4090187e+01 </wgt>
<wgt id='eftrwgt105_ctg_-1.088_cqq83_12.665_cqq81_-11.087_cqu8_18.548_cqd8_-4.797_ctq8_-2.92_ctu8_2.89_ctd8_13.714_cqq13_6.529_cqq11_2.903_cqu1_9.448_cqd1_-11.012_ctq1_-0.553_ctu1_-10.792_ctd1_7.312'> +1.0746961e+01 </wgt>
<wgt id='eftrwgt106_ctg_-0.66_cqq83_13.87_cqq81_-10.837_cqu8_-12.598_cqd8_7.858_ctq8_-12.118_ctu8_-7.151_ctd8_16.078_cqq13_4.226_cqq11_0.29_cqu1_-10.828_cqd1_12.788_ctq1_7.2_ctu1_2.803_ctd1_-12.185'> +4.4858991e+01 </wgt>
<wgt id='eftrwgt107_ctg_0.987_cqq83_4.124_cqq81_-7.722_cqu8_-17.904_cqd8_-9.465_ctq8_-8.335_ctu8_11.217_ctd8_22.691_cqq13_-5.276_cqq11_2.989_cqu1_7.593_cqd1_-5.045_ctq1_1.607_ctu1_3.552_ctd1_13.817'> +4.7386881e+01 </wgt>
<wgt id='eftrwgt108_ctg_-0.161_cqq83_-2.662_cqq81_-3.151_cqu8_9.405_cqd8_-12.787_ctq8_6.797_ctu8_12.29_ctd8_-20.381_cqq13_6.286_cqq11_-1.665_cqu1_-10.66_cqd1_13.551_ctq1_-0.592_ctu1_-10.77_ctd1_-11.103'> +5.8445133e+01 </wgt>
<wgt id='eftrwgt109_ctg_-0.866_cqq83_17.321_cqq81_-1.402_cqu8_15.303_cqd8_-9.712_ctq8_-2.135_ctu8_4.236_ctd8_-2.625_cqq13_6.154_cqq11_-5.703_cqu1_2.095_cqd1_6.678_ctq1_-8.391_ctu1_-3.925_ctd1_1.624'> +2.7217512e+01 </wgt>
<wgt id='eftrwgt110_ctg_0.155_cqq83_-16.958_cqq81_-11.926_cqu8_-4.429_cqd8_12.271_ctq8_12.349_ctu8_9.754_ctd8_-5.943_cqq13_1.387_cqq11_-2.925_cqu1_8.241_cqd1_-0.988_ctq1_8.274_ctu1_-10.609_ctd1_-7.304'> +2.7433541e+01 </wgt>
<wgt id='eftrwgt111_ctg_-1.065_cqq83_14.73_cqq81_-1.172_cqu8_-15.353_cqd8_0.237_ctq8_10.108_ctu8_4.492_ctd8_24.01_cqq13_-1.328_cqq11_0.667_cqu1_-2.509_cqd1_0.719_ctq1_0.384_ctu1_-8.496_ctd1_-3.168'> +4.4195290e+01 </wgt>
<wgt id='eftrwgt112_ctg_0.963_cqq83_-9.182_cqq81_0.049_cqu8_8.605_cqd8_-14.263_ctq8_8.142_ctu8_-8.43_ctd8_-11.958_cqq13_-2.649_cqq11_1.046_cqu1_6.616_cqd1_7.998_ctq1_1.189_ctu1_-6.255_ctd1_6.95'> +9.0699859e+01 </wgt>
<wgt id='eftrwgt113_ctg_1.026_cqq83_-11.499_cqq81_-5.535_cqu8_17.173_cqd8_3.883_ctq8_-9.651_ctu8_-11.427_ctd8_18.837_cqq13_6.015_cqq11_6.509_cqu1_10.344_cqd1_-2.658_ctq1_-2.985_ctu1_-3.104_ctd1_9.041'> +6.7178054e+01 </wgt>
<wgt id='eftrwgt114_ctg_1.167_cqq83_14.15_cqq81_-2.248_cqu8_-3.57_cqd8_15.163_ctq8_-12.657_ctu8_5.129_ctd8_6.614_cqq13_-6.863_cqq11_-3.391_cqu1_-0.777_cqd1_-2.994_ctq1_1.952_ctu1_-7.447_ctd1_11.847'> +7.5913336e+01 </wgt>
<wgt id='eftrwgt115_ctg_0.982_cqq83_-16.13_cqq81_-2.864_cqu8_-3.251_cqd8_13.648_ctq8_-3.377_ctu8_-15.255_ctd8_-20.505_cqq13_6.864_cqq11_6.065_cqu1_1.403_cqd1_13.412_ctq1_6.891_ctu1_-5.305_ctd1_6.959'> +1.2095414e+02 </wgt>
<wgt id='eftrwgt116_ctg_0.484_cqq83_-5.877_cqq81_-0.844_cqu8_-8.226_cqd8_-12.543_ctq8_-7.938_ctu8_-14.308_ctd8_-16.759_cqq13_3.295_cqq11_-4.935_cqu1_1.553_cqd1_-2.747_ctq1_1.896_ctu1_-2.598_ctd1_1.468'> +3.8199397e+01 </wgt>
<wgt id='eftrwgt117_ctg_-0.766_cqq83_13.005_cqq81_4.278_cqu8_-5.789_cqd8_-2.642_ctq8_1.928_ctu8_-17.627_ctd8_13.206_cqq13_-3.352_cqq11_-4.623_cqu1_1.281_cqd1_-0.353_ctq1_-7.888_ctu1_-2.739_ctd1_-3.691'> +1.5136788e+01 </wgt>
<wgt id='eftrwgt118_ctg_-0.026_cqq83_16.863_cqq81_-3.657_cqu8_-14.653_cqd8_19.452_ctq8_-11.093_ctu8_7.169_ctd8_12.713_cqq13_2.219_cqq11_6.829_cqu1_-1.47_cqd1_13.329_ctq1_-8.726_ctu1_4.506_ctd1_-6.731'> +9.6981419e+01 </wgt>
<wgt id='eftrwgt119_ctg_-0.927_cqq83_14.324_cqq81_12.494_cqu8_-15.766_cqd8_-22.63_ctq8_7.771_ctu8_17.012_ctd8_-4.27_cqq13_-4.263_cqq11_7.096_cqu1_5.583_cqd1_7.465_ctq1_3.841_ctu1_9.204_ctd1_12.312'> +1.5513787e+02 </wgt>
<wgt id='eftrwgt120_ctg_-1.301_cqq83_2.61_cqq81_-0.228_cqu8_-13.019_cqd8_-7.21_ctq8_-10.88_ctu8_-12.7_ctd8_-9.515_cqq13_3.421_cqq11_-0.285_cqu1_-1.252_cqd1_-3.317_ctq1_7.885_ctu1_3.534_ctd1_11.001'> +3.3687746e+01 </wgt>
<wgt id='eftrwgt121_ctg_0.544_cqq83_-11.95_cqq81_-0.044_cqu8_-3.43_cqd8_-3.87_ctq8_-7.539_ctu8_-14.796_ctd8_-19.179_cqq13_3.035_cqq11_-7.307_cqu1_1.661_cqd1_-9.45_ctq1_-2.9_ctu1_7.446_ctd1_-4.846'> +7.9929737e+01 </wgt>
<wgt id='eftrwgt122_ctg_0.077_cqq83_12.997_cqq81_8.942_cqu8_-12.333_cqd8_-21.55_ctq8_8.94_ctu8_12.874_ctd8_-23.03_cqq13_7.882_cqq11_-0.681_cqu1_1.4_cqd1_6.361_ctq1_-0.884_ctu1_-0.375_ctd1_1.214'> +1.2250299e+02 </wgt>
<wgt id='eftrwgt123_ctg_-1.357_cqq83_9.311_cqq81_-6.821_cqu8_-3.271_cqd8_-16.074_ctq8_9.326_ctu8_14.404_ctd8_-2.447_cqq13_3.173_cqq11_-3.404_cqu1_2.525_cqd1_5.494_ctq1_-7.91_ctu1_-0.974_ctd1_4.439'> +4.9472722e+01 </wgt>
<wgt id='eftrwgt124_ctg_-1.223_cqq83_-12.321_cqq81_-7.848_cqu8_-2.265_cqd8_-5.02_ctq8_-13.565_ctu8_-9.074_ctd8_2.046_cqq13_-4.347_cqq11_5.557_cqu1_1.21_cqd1_-2.046_ctq1_-6.903_ctu1_-4.355_ctd1_2.297'> +2.7972787e-01 </wgt>
<wgt id='eftrwgt125_ctg_0.961_cqq83_6.0_cqq81_5.561_cqu8_-3.626_cqd8_-19.356_ctq8_-2.864_ctu8_-0.243_ctd8_23.255_cqq13_-8.112_cqq11_-5.996_cqu1_9.108_cqd1_-10.685_ctq1_-6.426_ctu1_-1.269_ctd1_3.35'> +2.2472462e+01 </wgt>
<wgt id='eftrwgt126_ctg_0.285_cqq83_-16.325_cqq81_0.476_cqu8_-16.347_cqd8_22.521_ctq8_-0.468_ctu8_-2.288_ctd8_22.57_cqq13_-7.864_cqq11_-2.689_cqu1_6.85_cqd1_8.701_ctq1_6.612_ctu1_10.799_ctd1_5.338'> +2.1785656e+02 </wgt>
<wgt id='eftrwgt127_ctg_-1.378_cqq83_-17.314_cqq81_-12.704_cqu8_-6.427_cqd8_-12.718_ctq8_4.311_ctu8_-7.334_ctd8_-24.506_cqq13_-8.01_cqq11_5.874_cqu1_0.468_cqd1_8.191_ctq1_-0.277_ctu1_8.517_ctd1_-7.478'> +8.7095572e+01 </wgt>
<wgt id='eftrwgt128_ctg_1.18_cqq83_-1.471_cqq81_2.433_cqu8_10.198_cqd8_23.306_ctq8_-12.125_ctu8_16.403_ctd8_18.18_cqq13_7.781_cqq11_-2.869_cqu1_-7.593_cqd1_-6.942_ctq1_0.572_ctu1_3.932_ctd1_-1.468'> +1.7212129e+02 </wgt>
<wgt id='eftrwgt129_ctg_0.941_cqq83_-4.592_cqq81_6.49_cqu8_-5.317_cqd8_16.947_ctq8_12.635_ctu8_-5.132_ctd8_22.403_cqq13_2.333_cqq11_-2.444_cqu1_7.188_cqd1_-3.684_ctq1_-5.675_ctu1_-4.027_ctd1_-1.358'> +1.4232978e+02 </wgt>
<wgt id='eftrwgt130_ctg_-0.208_cqq83_-17.622_cqq81_-2.397_cqu8_15.786_cqd8_15.249_ctq8_-1.44_ctu8_10.097_ctd8_-10.056_cqq13_-3.196_cqq11_4.986_cqu1_-0.332_cqd1_-13.619_ctq1_2.563_ctu1_1.892_ctd1_2.648'> +3.9931981e+01 </wgt>
<wgt id='eftrwgt131_ctg_1.247_cqq83_-17.63_cqq81_-10.818_cqu8_5.208_cqd8_0.681_ctq8_12.537_ctu8_-14.866_ctd8_3.091_cqq13_2.337_cqq11_-5.924_cqu1_5.379_cqd1_5.986_ctq1_-5.666_ctu1_10.553_ctd1_1.395'> +2.3456887e+01 </wgt>
<wgt id='eftrwgt132_ctg_-0.801_cqq83_7.262_cqq81_9.212_cqu8_-8.732_cqd8_-8.091_ctq8_-1.906_ctu8_3.948_ctd8_13.123_cqq13_2.692_cqq11_8.195_cqu1_0.96_cqd1_-1.571_ctq1_5.243_ctu1_-1.861_ctd1_-9.371'> +3.8099318e+01 </wgt>
<wgt id='eftrwgt133_ctg_-1.257_cqq83_16.117_cqq81_-9.715_cqu8_-7.571_cqd8_1.07_ctq8_2.477_ctu8_-7.002_ctd8_13.477_cqq13_-0.711_cqq11_7.763_cqu1_-6.041_cqd1_-7.251_ctq1_-2.998_ctu1_-2.904_ctd1_-12.567'> +1.2987930e+02 </wgt>
<wgt id='eftrwgt134_ctg_1.354_cqq83_-7.657_cqq81_-1.021_cqu8_-16.291_cqd8_1.184_ctq8_-2.275_ctu8_16.917_ctd8_-5.942_cqq13_5.969_cqq11_3.289_cqu1_-10.263_cqd1_4.064_ctq1_8.35_ctu1_-0.11_ctd1_0.257'> +5.8631266e+00 </wgt>
<wgt id='eftrwgt135_ctg_-0.715_cqq83_-9.614_cqq81_-10.763_cqu8_9.461_cqd8_21.044_ctq8_0.83_ctu8_16.276_ctd8_17.397_cqq13_7.427_cqq11_-7.592_cqu1_5.575_cqd1_-12.777_ctq1_0.413_ctu1_-0.337_ctd1_5.614'> +1.2200652e+02 </wgt>
<wgt id='eftrwgt136_ctg_1.148_cqq83_9.105_cqq81_7.25_cqu8_15.489_cqd8_-14.113_ctq8_-1.534_ctu8_-4.722_ctd8_-14.085_cqq13_7.64_cqq11_5.644_cqu1_6.289_cqd1_-3.464_ctq1_-4.467_ctu1_10.661_ctd1_-10.103'> +8.3289973e+01 </wgt>
<wgt id='eftrwgt137_ctg_0.519_cqq83_-3.88_cqq81_5.428_cqu8_-11.688_cqd8_12.458_ctq8_5.584_ctu8_4.192_ctd8_-4.494_cqq13_0.22_cqq11_6.429_cqu1_0.379_cqd1_-2.464_ctq1_3.48_ctu1_8.707_ctd1_10.184'> +2.8684331e+01 </wgt>
<wgt id='eftrwgt138_ctg_0.044_cqq83_15.014_cqq81_-2.24_cqu8_-0.07_cqd8_15.723_ctq8_4.233_ctu8_15.378_ctd8_22.326_cqq13_5.742_cqq11_-7.973_cqu1_5.127_cqd1_8.3_ctq1_-2.237_ctu1_-6.818_ctd1_9.184'> +2.0406057e+02 </wgt>
<wgt id='eftrwgt139_ctg_0.536_cqq83_3.108_cqq81_-2.815_cqu8_17.298_cqd8_-20.517_ctq8_-0.558_ctu8_5.522_ctd8_9.105_cqq13_7.706_cqq11_-1.121_cqu1_6.904_cqd1_-8.677_ctq1_0.168_ctu1_4.991_ctd1_3.884'> +9.1178879e+00 </wgt>
<wgt id='eftrwgt140_ctg_-1.222_cqq83_14.489_cqq81_7.936_cqu8_-5.001_cqd8_-7.099_ctq8_0.704_ctu8_-16.077_ctd8_15.282_cqq13_3.777_cqq11_4.884_cqu1_-3.897_cqd1_-3.233_ctq1_-0.56_ctu1_1.21_ctd1_-11.922'> +7.2358604e+01 </wgt>
<wgt id='eftrwgt141_ctg_-0.595_cqq83_-16.264_cqq81_7.534_cqu8_-4.512_cqd8_17.409_ctq8_3.217_ctu8_-8.193_ctd8_8.464_cqq13_-7.686_cqq11_-1.06_cqu1_4.135_cqd1_9.485_ctq1_-2.481_ctu1_4.42_ctd1_3.636'> +1.0235221e+02 </wgt>
<wgt id='eftrwgt142_ctg_1.208_cqq83_4.059_cqq81_6.781_cqu8_-5.717_cqd8_-21.408_ctq8_0.083_ctu8_14.943_ctd8_11.388_cqq13_0.694_cqq11_-5.103_cqu1_-7.402_cqd1_13.43_ctq1_3.406_ctu1_2.945_ctd1_5.188'> +1.0163144e+02 </wgt>
<wgt id='eftrwgt143_ctg_0.787_cqq83_2.859_cqq81_-12.404_cqu8_17.905_cqd8_18.147_ctq8_5.594_ctu8_13.171_ctd8_-8.3_cqq13_-1.709_cqq11_3.715_cqu1_-2.267_cqd1_0.319_ctq1_-2.513_ctu1_-6.093_ctd1_0.66'> +1.6366697e+01 </wgt>
<wgt id='eftrwgt144_ctg_0.369_cqq83_12.119_cqq81_10.451_cqu8_-4.308_cqd8_10.751_ctq8_2.903_ctu8_-16.453_ctd8_12.168_cqq13_-7.8_cqq11_-4.495_cqu1_-7.968_cqd1_-11.778_ctq1_-0.673_ctu1_9.838_ctd1_7.574'> +5.5215914e+01 </wgt>
<wgt id='eftrwgt145_ctg_-0.314_cqq83_-7.538_cqq81_9.523_cqu8_-0.965_cqd8_7.921_ctq8_-3.669_ctu8_-17.137_ctd8_13.302_cqq13_-0.272_cqq11_-1.659_cqu1_-4.888_cqd1_2.565_ctq1_-4.075_ctu1_7.665_ctd1_4.628'> +5.3719057e+01 </wgt>
<wgt id='eftrwgt146_ctg_-0.028_cqq83_17.018_cqq81_4.288_cqu8_2.423_cqd8_9.91_ctq8_-1.803_ctu8_-7.374_ctd8_-22.743_cqq13_1.412_cqq11_1.518_cqu1_-5.031_cqd1_4.621_ctq1_-2.805_ctu1_-7.971_ctd1_2.504'> +1.9954793e+01 </wgt>
<wgt id='eftrwgt147_ctg_0.512_cqq83_9.531_cqq81_-2.016_cqu8_15.155_cqd8_-1.954_ctq8_-13.237_ctu8_1.868_ctd8_5.908_cqq13_-7.773_cqq11_7.257_cqu1_4.489_cqd1_2.963_ctq1_-3.777_ctu1_5.458_ctd1_-6.432'> +8.9776530e+00 </wgt>
<wgt id='eftrwgt148_ctg_-0.482_cqq83_17.097_cqq81_10.457_cqu8_-6.705_cqd8_-13.185_ctq8_-4.371_ctu8_14.509_ctd8_-13.32_cqq13_1.822_cqq11_0.354_cqu1_7.002_cqd1_10.541_ctq1_5.822_ctu1_5.744_ctd1_-13.15'> +3.8408864e+01 </wgt>
<wgt id='eftrwgt149_ctg_-0.905_cqq83_0.86_cqq81_-13.515_cqu8_11.771_cqd8_-1.866_ctq8_13.439_ctu8_0.144_ctd8_13.675_cqq13_-5.569_cqq11_-7.731_cqu1_1.84_cqd1_3.468_ctq1_-5.507_ctu1_1.982_ctd1_-13.061'> +3.8722914e+01 </wgt>
<wgt id='eftrwgt150_ctg_0.0_cqq83_-11.426_cqq81_-6.524_cqu8_-16.088_cqd8_-21.27_ctq8_10.524_ctu8_14.233_ctd8_17.255_cqq13_4.89_cqq11_-4.416_cqu1_4.918_cqd1_-11.767_ctq1_1.268_ctu1_3.231_ctd1_-6.475'> +9.6982081e+01 </wgt>
<wgt id='eftrwgt151_ctg_-0.918_cqq83_-17.499_cqq81_-6.826_cqu8_10.016_cqd8_16.971_ctq8_1.599_ctu8_16.783_ctd8_5.312_cqq13_-2.351_cqq11_-1.209_cqu1_0.269_cqd1_-8.867_ctq1_-7.829_ctu1_-1.326_ctd1_-0.175'> +6.1128295e+01 </wgt>
<wgt id='eftrwgt152_ctg_-0.246_cqq83_8.939_cqq81_-6.847_cqu8_-18.344_cqd8_21.999_ctq8_6.606_ctu8_9.509_ctd8_17.198_cqq13_-1.071_cqq11_7.466_cqu1_-6.387_cqd1_-1.912_ctq1_8.495_ctu1_-3.261_ctd1_8.87'> +1.3146128e+02 </wgt>
<wgt id='eftrwgt153_ctg_0.903_cqq83_-16.714_cqq81_4.491_cqu8_13.339_cqd8_3.836_ctq8_10.658_ctu8_1.169_ctd8_-12.868_cqq13_-4.118_cqq11_5.124_cqu1_5.936_cqd1_-5.521_ctq1_-6.529_ctu1_-3.471_ctd1_-8.961'> +6.1642479e+01 </wgt>
<wgt id='eftrwgt154_ctg_-0.773_cqq83_-11.295_cqq81_11.399_cqu8_12.409_cqd8_-7.958_ctq8_-6.63_ctu8_17.921_ctd8_-4.387_cqq13_-1.075_cqq11_-3.648_cqu1_0.733_cqd1_9.925_ctq1_-5.979_ctu1_6.286_ctd1_-8.945'> +7.1134091e+00 </wgt>
<wgt id='eftrwgt155_ctg_-1.155_cqq83_10.436_cqq81_11.789_cqu8_11.375_cqd8_0.293_ctq8_-12.103_ctu8_-1.324_ctd8_-13.307_cqq13_0.647_cqq11_-1.508_cqu1_4.529_cqd1_-4.847_ctq1_-1.864_ctu1_7.458_ctd1_-2.56'> +2.5132065e+01 </wgt>
<wgt id='eftrwgt156_ctg_1.116_cqq83_-1.502_cqq81_7.154_cqu8_-6.575_cqd8_-19.147_ctq8_-2.196_ctu8_15.471_ctd8_-13.501_cqq13_6.413_cqq11_3.8_cqu1_-1.927_cqd1_3.978_ctq1_3.939_ctu1_-0.696_ctd1_7.298'> +8.0581690e+01 </wgt>
<wgt id='eftrwgt157_ctg_-0.739_cqq83_2.709_cqq81_13.851_cqu8_9.744_cqd8_-15.601_ctq8_-3.406_ctu8_0.534_ctd8_13.826_cqq13_-5.94_cqq11_0.154_cqu1_4.119_cqd1_-0.999_ctq1_7.262_ctu1_1.145_ctd1_4.349'> +3.2800988e+00 </wgt>
<wgt id='eftrwgt158_ctg_-0.16_cqq83_8.752_cqq81_-10.353_cqu8_13.772_cqd8_-19.74_ctq8_1.97_ctu8_-17.022_ctd8_-15.946_cqq13_4.368_cqq11_-3.748_cqu1_-3.331_cqd1_1.681_ctq1_0.02_ctu1_3.467_ctd1_11.988'> +1.2120201e+02 </wgt>
<wgt id='eftrwgt159_ctg_-0.773_cqq83_-5.383_cqq81_11.182_cqu8_14.253_cqd8_22.486_ctq8_4.123_ctu8_16.717_ctd8_16.197_cqq13_7.633_cqq11_3.65_cqu1_3.518_cqd1_4.557_ctq1_0.213_ctu1_-8.115_ctd1_5.813'> +1.3891666e+02 </wgt>
<wgt id='eftrwgt160_ctg_-0.954_cqq83_13.029_cqq81_10.509_cqu8_2.914_cqd8_-7.008_ctq8_3.519_ctu8_-4.882_ctd8_-8.587_cqq13_-4.654_cqq11_6.741_cqu1_-8.034_cqd1_8.536_ctq1_7.776_ctu1_8.243_ctd1_-6.062'> +1.4418899e+01 </wgt>
<wgt id='eftrwgt161_ctg_0.783_cqq83_-0.823_cqq81_-10.667_cqu8_6.458_cqd8_-6.599_ctq8_5.205_ctu8_-17.575_ctd8_-8.783_cqq13_-6.096_cqq11_-7.308_cqu1_-4.219_cqd1_4.937_ctq1_-6.352_ctu1_4.953_ctd1_3.017'> +2.4256232e+01 </wgt>
<wgt id='eftrwgt162_ctg_-0.671_cqq83_16.815_cqq81_-12.317_cqu8_1.448_cqd8_10.899_ctq8_4.606_ctu8_-11.122_ctd8_-10.201_cqq13_4.82_cqq11_3.575_cqu1_-8.572_cqd1_11.857_ctq1_5.276_ctu1_-9.587_ctd1_8.531'> +1.2173369e+02 </wgt>
<wgt id='eftrwgt163_ctg_1.242_cqq83_16.122_cqq81_-8.636_cqu8_-5.852_cqd8_7.335_ctq8_-5.7_ctu8_-13.545_ctd8_24.321_cqq13_5.114_cqq11_-6.63_cqu1_-4.255_cqd1_8.437_ctq1_-6.875_ctu1_9.128_ctd1_2.843'> +1.3402795e+02 </wgt>
<wgt id='eftrwgt164_ctg_1.092_cqq83_-5.055_cqq81_-8.599_cqu8_4.203_cqd8_-7.68_ctq8_-11.588_ctu8_0.276_ctd8_17.336_cqq13_-7.727_cqq11_-5.834_cqu1_-7.894_cqd1_-13.963_ctq1_8.207_ctu1_2.956_ctd1_-11.592'> +2.0757661e+02 </wgt>
<wgt id='eftrwgt165_ctg_0.595_cqq83_4.636_cqq81_-0.11_cqu8_-0.581_cqd8_-20.832_ctq8_-0.558_ctu8_4.659_ctd8_14.601_cqq13_-7.948_cqq11_3.039_cqu1_4.976_cqd1_-0.906_ctq1_-5.244_ctu1_-2.665_ctd1_-11.849'> +4.7454472e+01 </wgt>
<wgt id='eftrwgt166_ctg_1.216_cqq83_5.127_cqq81_1.484_cqu8_12.31_cqd8_15.332_ctq8_-1.18_ctu8_2.062_ctd8_7.64_cqq13_-3.138_cqq11_3.748_cqu1_-2.564_cqd1_-4.289_ctq1_4.03_ctu1_7.302_ctd1_-7.704'> +9.9980186e+01 </wgt>
<wgt id='eftrwgt167_ctg_1.033_cqq83_5.72_cqq81_-1.985_cqu8_-0.401_cqd8_0.76_ctq8_-4.788_ctu8_5.904_ctd8_-7.804_cqq13_5.806_cqq11_-6.292_cqu1_-1.952_cqd1_-8.265_ctq1_2.846_ctu1_-6.057_ctd1_7.749'> +9.5423306e-02 </wgt>
<wgt id='eftrwgt168_ctg_-0.37_cqq83_17.55_cqq81_9.651_cqu8_-15.831_cqd8_-2.866_ctq8_-6.609_ctu8_-14.397_ctd8_5.753_cqq13_5.663_cqq11_-8.112_cqu1_-9.915_cqd1_6.099_ctq1_-0.019_ctu1_-1.021_ctd1_-5.252'> +2.5035683e+00 </wgt>
<wgt id='eftrwgt169_ctg_-1.172_cqq83_17.994_cqq81_-4.282_cqu8_-10.241_cqd8_-2.149_ctq8_-9.811_ctu8_-0.052_ctd8_20.563_cqq13_0.796_cqq11_-3.46_cqu1_8.811_cqd1_-11.665_ctq1_2.613_ctu1_-2.034_ctd1_-11.62'> +1.8265340e+02 </wgt>
<wgt id='eftrwgt170_ctg_-1.173_cqq83_-5.111_cqq81_9.87_cqu8_12.84_cqd8_15.747_ctq8_6.145_ctu8_16.166_ctd8_21.901_cqq13_1.621_cqq11_-4.815_cqu1_-6.967_cqd1_-9.672_ctq1_8.708_ctu1_-3.905_ctd1_5.596'> +1.0201982e+02 </wgt>
<wgt id='eftrwgt171_ctg_-0.487_cqq83_-3.728_cqq81_-2.089_cqu8_-8.617_cqd8_-3.165_ctq8_5.221_ctu8_-6.935_ctd8_-10.922_cqq13_2.93_cqq11_-3.943_cqu1_0.026_cqd1_10.454_ctq1_1.412_ctu1_-4.837_ctd1_4.419'> +7.2752041e+01 </wgt>
<wgt id='eftrwgt172_ctg_0.395_cqq83_8.99_cqq81_-3.002_cqu8_-13.401_cqd8_-8.393_ctq8_6.268_ctu8_10.287_ctd8_3.578_cqq13_-0.326_cqq11_0.491_cqu1_-1.452_cqd1_0.292_ctq1_2.055_ctu1_8.333_ctd1_-11.0'> +3.3417804e+01 </wgt>
<wgt id='eftrwgt173_ctg_-0.268_cqq83_-9.609_cqq81_-10.088_cqu8_-10.258_cqd8_2.411_ctq8_-9.923_ctu8_-12.813_ctd8_-11.549_cqq13_-0.115_cqq11_0.881_cqu1_3.83_cqd1_-7.017_ctq1_-5.831_ctu1_5.916_ctd1_9.799'> +4.4505822e+00 </wgt>
<wgt id='eftrwgt174_ctg_0.0_cqq83_14.255_cqq81_-3.162_cqu8_7.632_cqd8_8.455_ctq8_-10.706_ctu8_12.248_ctd8_-7.818_cqq13_-7.674_cqq11_3.169_cqu1_-10.606_cqd1_10.997_ctq1_7.461_ctu1_-1.024_ctd1_-12.78'> +2.3047409e+00 </wgt>
<wgt id='eftrwgt175_ctg_0.97_cqq83_0.362_cqq81_12.475_cqu8_-6.155_cqd8_12.941_ctq8_-11.631_ctu8_12.793_ctd8_5.998_cqq13_5.415_cqq11_3.61_cqu1_3.086_cqd1_11.222_ctq1_-7.83_ctu1_7.604_ctd1_-6.316'> +4.8480021e+01 </wgt>
<wgt id='eftrwgt176_ctg_-0.671_cqq83_9.217_cqq81_12.675_cqu8_-5.504_cqd8_11.909_ctq8_-13.928_ctu8_3.526_ctd8_12.153_cqq13_6.419_cqq11_-4.462_cqu1_-8.472_cqd1_-6.853_ctq1_-5.497_ctu1_9.273_ctd1_7.938'> +4.5433552e+01 </wgt>
<wgt id='eftrwgt177_ctg_-0.305_cqq83_7.149_cqq81_-4.524_cqu8_-16.678_cqd8_-16.144_ctq8_5.076_ctu8_-17.746_ctd8_16.893_cqq13_4.267_cqq11_2.618_cqu1_4.353_cqd1_8.975_ctq1_4.66_ctu1_3.456_ctd1_-10.007'> +1.3332933e+00 </wgt>
<wgt id='eftrwgt178_ctg_-0.022_cqq83_13.793_cqq81_-0.578_cqu8_13.877_cqd8_-10.596_ctq8_10.476_ctu8_5.651_ctd8_8.781_cqq13_7.781_cqq11_-0.157_cqu1_-3.425_cqd1_10.096_ctq1_-6.687_ctu1_-1.677_ctd1_2.543'> +4.6843067e+01 </wgt>
<wgt id='eftrwgt179_ctg_0.497_cqq83_-6.916_cqq81_13.035_cqu8_-5.975_cqd8_12.419_ctq8_5.679_ctu8_-2.58_ctd8_-17.339_cqq13_-3.741_cqq11_-1.097_cqu1_-5.551_cqd1_-0.983_ctq1_-5.692_ctu1_4.263_ctd1_4.456'> +3.5203138e+00 </wgt>
<wgt id='sm_point'> +1.0238875e+00 </wgt>
<wgt id='1001'> +1.1579678e+02 </wgt>
<wgt id='1002'> +9.6768428e+01 </wgt>
<wgt id='1003'> +9.6768428e+01 </wgt>
<wgt id='1004'> +1.1757409e+02 </wgt>
<wgt id='1005'> +9.4821844e+01 </wgt>
<wgt id='1006'> +9.8315366e+01 </wgt>
<wgt id='1007'> +8.3144123e+01 </wgt>
<wgt id='1008'> +8.3144123e+01 </wgt>
<wgt id='1009'> +9.9719274e+01 </wgt>
<wgt id='1010'> +8.1576173e+01 </wgt>
<wgt id='1011'> +1.3847868e+02 </wgt>
<wgt id='1012'> +1.1409489e+02 </wgt>
<wgt id='1013'> +1.1409489e+02 </wgt>
<wgt id='1014'> +1.4078412e+02 </wgt>
<wgt id='1015'> +1.1163184e+02 </wgt>
<wgt id='1016'> +1.1236530e+02 </wgt>
<wgt id='1017'> +9.3873970e+01 </wgt>
<wgt id='1018'> +9.3873970e+01 </wgt>
<wgt id='1019'> +1.1409489e+02 </wgt>
<wgt id='1020'> +9.1984248e+01 </wgt>
<wgt id='1021'> +9.5401927e+01 </wgt>
<wgt id='1022'> +8.0657184e+01 </wgt>
<wgt id='1023'> +8.0657184e+01 </wgt>
<wgt id='1024'> +9.6768428e+01 </wgt>
<wgt id='1025'> +7.9134961e+01 </wgt>
<wgt id='1026'> +1.3437506e+02 </wgt>
<wgt id='1027'> +1.1068218e+02 </wgt>
<wgt id='1028'> +1.1068218e+02 </wgt>
<wgt id='1029'> +1.3661810e+02 </wgt>
<wgt id='1030'> +1.0829119e+02 </wgt>
<wgt id='1031'> +1.1923581e+02 </wgt>
<wgt id='1032'> +9.9719274e+01 </wgt>
<wgt id='1033'> +9.9719274e+01 </wgt>
<wgt id='1034'> +1.2105570e+02 </wgt>
<wgt id='1035'> +9.7719269e+01 </wgt>
<wgt id='1036'> +1.0123522e+02 </wgt>
<wgt id='1037'> +8.5679511e+01 </wgt>
<wgt id='1038'> +8.5679511e+01 </wgt>
<wgt id='1039'> +1.0267217e+02 </wgt>
<wgt id='1040'> +8.4068856e+01 </wgt>
<wgt id='1041'> +1.4259134e+02 </wgt>
<wgt id='1042'> +1.1757409e+02 </wgt>
<wgt id='1043'> +1.1757409e+02 </wgt>
<wgt id='1044'> +1.4495302e+02 </wgt>
<wgt id='1045'> +1.1504292e+02 </wgt>
<wgt id='1046'> +1.1579678e+02 </wgt>
<wgt id='1047'> +1.1579678e+02 </wgt>
<wgt id='1048'> +1.1579678e+02 </wgt>
<wgt id='1049'> +1.1598564e+02 </wgt>
<wgt id='1050'> +1.1583560e+02 </wgt>
<wgt id='1051'> +1.1588969e+02 </wgt>
<wgt id='1052'> +1.1567334e+02 </wgt>
<wgt id='1053'> +1.1555660e+02 </wgt>
<wgt id='1054'> +1.1556879e+02 </wgt>
<wgt id='1055'> +1.1478756e+02 </wgt>
<wgt id='1056'> +1.1492176e+02 </wgt>
<wgt id='1057'> +1.1630913e+02 </wgt>
<wgt id='1058'> +1.1550989e+02 </wgt>
<wgt id='1059'> +1.1615605e+02 </wgt>
<wgt id='1060'> +1.1583280e+02 </wgt>
<wgt id='1061'> +1.1652033e+02 </wgt>
<wgt id='1062'> +1.1555082e+02 </wgt>
<wgt id='1063'> +1.1698966e+02 </wgt>
<wgt id='1064'> +1.1514048e+02 </wgt>
<wgt id='1065'> +1.1567522e+02 </wgt>
<wgt id='1066'> +1.1468181e+02 </wgt>
<wgt id='1067'> +1.1643720e+02 </wgt>
<wgt id='1068'> +1.1593722e+02 </wgt>
<wgt id='1069'> +1.1530382e+02 </wgt>
<wgt id='1070'> +1.1606878e+02 </wgt>
<wgt id='1071'> +1.1520138e+02 </wgt>
<wgt id='1072'> +1.1530311e+02 </wgt>
<wgt id='1073'> +1.1544323e+02 </wgt>
<wgt id='1074'> +1.1603151e+02 </wgt>
<wgt id='1075'> +1.1659935e+02 </wgt>
<wgt id='1076'> +1.1588456e+02 </wgt>
<wgt id='1077'> +1.1758857e+02 </wgt>
<wgt id='1078'> +1.1586617e+02 </wgt>
<wgt id='1079'> +1.1763097e+02 </wgt>
<wgt id='1080'> +1.1580207e+02 </wgt>
<wgt id='1081'> +1.1631128e+02 </wgt>
<wgt id='1082'> +1.1631619e+02 </wgt>
<wgt id='1083'> +1.1543740e+02 </wgt>
<wgt id='1084'> +1.1482350e+02 </wgt>
<wgt id='1085'> +1.1655096e+02 </wgt>
<wgt id='1086'> +1.1553440e+02 </wgt>
<wgt id='1087'> +1.1554546e+02 </wgt>
<wgt id='1088'> +1.1570068e+02 </wgt>
<wgt id='1089'> +1.1545902e+02 </wgt>
<wgt id='1090'> +1.1522751e+02 </wgt>
<wgt id='1091'> +1.1567941e+02 </wgt>
<wgt id='1092'> +1.1570212e+02 </wgt>
<wgt id='1093'> +1.1630859e+02 </wgt>
<wgt id='1094'> +1.1605371e+02 </wgt>
<wgt id='1095'> +1.1606872e+02 </wgt>
<wgt id='1096'> +1.1570669e+02 </wgt>
<wgt id='1097'> +1.1528239e+02 </wgt>
<wgt id='1098'> +1.1562879e+02 </wgt>
<wgt id='1099'> +1.1618506e+02 </wgt>
<wgt id='1100'> +1.1531142e+02 </wgt>
<wgt id='1101'> +1.1563397e+02 </wgt>
<wgt id='1102'> +1.1579140e+02 </wgt>
<wgt id='1103'> +1.1638553e+02 </wgt>
<wgt id='1104'> +1.1553924e+02 </wgt>
<wgt id='1105'> +1.1566189e+02 </wgt>
<wgt id='1106'> +1.1624173e+02 </wgt>
<wgt id='1107'> +1.1572847e+02 </wgt>
<wgt id='1108'> +1.1622596e+02 </wgt>
<wgt id='1109'> +1.1603496e+02 </wgt>
<wgt id='1110'> +1.1596569e+02 </wgt>
<wgt id='1111'> +1.1552812e+02 </wgt>
<wgt id='1112'> +1.1573606e+02 </wgt>
<wgt id='1113'> +1.1586562e+02 </wgt>
<wgt id='1114'> +1.1589644e+02 </wgt>
<wgt id='1115'> +1.1597887e+02 </wgt>
<wgt id='1116'> +1.1596861e+02 </wgt>
<wgt id='1117'> +1.1556227e+02 </wgt>
<wgt id='1118'> +1.1604359e+02 </wgt>
<wgt id='1119'> +1.1593784e+02 </wgt>
<wgt id='1120'> +1.1554801e+02 </wgt>
<wgt id='1121'> +1.1594470e+02 </wgt>
<wgt id='1122'> +1.1557421e+02 </wgt>
<wgt id='1123'> +1.1575971e+02 </wgt>
<wgt id='1124'> +1.1566336e+02 </wgt>
<wgt id='1125'> +1.1594304e+02 </wgt>
<wgt id='1126'> +1.1576418e+02 </wgt>
<wgt id='1127'> +1.1562889e+02 </wgt>
<wgt id='1128'> +1.1587110e+02 </wgt>
<wgt id='1129'> +1.1579950e+02 </wgt>
<wgt id='1130'> +1.1604614e+02 </wgt>
<wgt id='1131'> +1.1589246e+02 </wgt>
<wgt id='1132'> +1.1584181e+02 </wgt>
<wgt id='1133'> +1.1583779e+02 </wgt>
<wgt id='1134'> +1.1582778e+02 </wgt>
<wgt id='1135'> +1.1603677e+02 </wgt>
<wgt id='1136'> +1.1594595e+02 </wgt>
<wgt id='1137'> +1.1586984e+02 </wgt>
<wgt id='1138'> +1.1580108e+02 </wgt>
<wgt id='1139'> +1.1584099e+02 </wgt>
<wgt id='1140'> +1.1585437e+02 </wgt>
<wgt id='1141'> +1.1573549e+02 </wgt>
<wgt id='1142'> +1.1582469e+02 </wgt>
<wgt id='1143'> +1.1573416e+02 </wgt>
<wgt id='1144'> +1.1577301e+02 </wgt>
<wgt id='1145'> +1.1579269e+02 </wgt>
<wgt id='1146'> +1.1580793e+02 </wgt>
<wgt id='1147'> +1.1592696e+02 </wgt>
<wgt id='1148'> +1.1579678e+02 </wgt>
<wgt id='1149'> +1.1356745e+02 </wgt>
<wgt id='1150'> +1.1890320e+02 </wgt>
<wgt id='1151'> +1.1579678e+02 </wgt>
<wgt id='1152'> +1.2804896e+02 </wgt>
<wgt id='1153'> +1.1704039e+02 </wgt>
<wgt id='1154'> +1.1813768e+02 </wgt>
<wgt id='1155'> +1.1689138e+02 </wgt>
<wgt id='1156'> +1.1415314e+02 </wgt>
<wgt id='1157'> +1.1757285e+02 </wgt>
<wgt id='1158'> +1.1662013e+02 </wgt>
<wgt id='1159'> +1.1288256e+02 </wgt>
<wgt id='1160'> +1.1583285e+02 </wgt>
<wgt id='1161'> +1.0797775e+02 </wgt>
<wgt id='1162'> +1.1222525e+02 </wgt>
<wgt id='1163'> +1.1380853e+02 </wgt>
<wgt id='1164'> +1.1143357e+02 </wgt>
<wgt id='1165'> +1.1570842e+02 </wgt>
<wgt id='1166'> +1.1742612e+02 </wgt>
<wgt id='1167'> +1.1339157e+02 </wgt>
<wgt id='1168'> +1.1730642e+02 </wgt>
<wgt id='1169'> +1.1776924e+02 </wgt>
<wgt id='1170'> +1.1754686e+02 </wgt>
<wgt id='1171'> +1.1134296e+02 </wgt>
<wgt id='1172'> +1.1864156e+02 </wgt>
<wgt id='1173'> +1.2252384e+02 </wgt>
<wgt id='1174'> +1.1921326e+02 </wgt>
<wgt id='1175'> +1.1353986e+02 </wgt>
<wgt id='1176'> +1.1569020e+02 </wgt>
<wgt id='1177'> +1.1583554e+02 </wgt>
<wgt id='1178'> +1.1950099e+02 </wgt>
<wgt id='1179'> +1.1723742e+02 </wgt>
<wgt id='1180'> +1.1205848e+02 </wgt>
<wgt id='1181'> +1.1530028e+02 </wgt>
<wgt id='1182'> +1.2002348e+02 </wgt>
<wgt id='1183'> +1.1528166e+02 </wgt>
<wgt id='1184'> +1.2745912e+02 </wgt>
<wgt id='1185'> +1.1183619e+02 </wgt>
<wgt id='1186'> +1.1725421e+02 </wgt>
<wgt id='1187'> +1.1788455e+02 </wgt>
<wgt id='1188'> +1.1684162e+02 </wgt>
<wgt id='1189'> +1.1285493e+02 </wgt>
<wgt id='1190'> +1.1238175e+02 </wgt>
<wgt id='1191'> +1.1553896e+02 </wgt>
<wgt id='1192'> +1.1828160e+02 </wgt>
<wgt id='1193'> +1.1692733e+02 </wgt>
<wgt id='1194'> +1.2040742e+02 </wgt>
<wgt id='1195'> +1.1678903e+02 </wgt>
<wgt id='1196'> +1.1206979e+02 </wgt>
<wgt id='1197'> +1.1711306e+02 </wgt>
<wgt id='1198'> +1.1813838e+02 </wgt>
<wgt id='1199'> +1.1140707e+02 </wgt>
<wgt id='1200'> +1.1699391e+02 </wgt>
<wgt id='1201'> +1.1679232e+02 </wgt>
<wgt id='1202'> +1.1421172e+02 </wgt>
<wgt id='1203'> +1.1681924e+02 </wgt>
<wgt id='1204'> +1.1549820e+02 </wgt>
<wgt id='1205'> +1.2120799e+02 </wgt>
<wgt id='1206'> +1.1976594e+02 </wgt>
<wgt id='1207'> +1.1646256e+02 </wgt>
<wgt id='1208'> +1.2038347e+02 </wgt>
<wgt id='1209'> +1.1980995e+02 </wgt>
<wgt id='1210'> +1.1215350e+02 </wgt>
<wgt id='1211'> +1.2173675e+02 </wgt>
<wgt id='1212'> +1.1883247e+02 </wgt>
<wgt id='1213'> +1.1708378e+02 </wgt>
<wgt id='1214'> +1.1532121e+02 </wgt>
<wgt id='1215'> +1.1603480e+02 </wgt>
<wgt id='1216'> +1.1981751e+02 </wgt>
<wgt id='1217'> +1.1015726e+02 </wgt>
<wgt id='1218'> +1.2101829e+02 </wgt>
<wgt id='1219'> +1.1650097e+02 </wgt>
<wgt id='1220'> +1.1339309e+02 </wgt>
<wgt id='1221'> +1.1348166e+02 </wgt>
<wgt id='1222'> +1.1934241e+02 </wgt>
<wgt id='1223'> +1.0702826e+02 </wgt>
<wgt id='1224'> +1.0943511e+02 </wgt>
<wgt id='1225'> +1.1155502e+02 </wgt>
<wgt id='1226'> +1.0799569e+02 </wgt>
<wgt id='1227'> +1.1968834e+02 </wgt>
<wgt id='1228'> +1.1706655e+02 </wgt>
<wgt id='1229'> +1.1972706e+02 </wgt>
<wgt id='1230'> +1.1626456e+02 </wgt>
<wgt id='1231'> +1.1301048e+02 </wgt>
<wgt id='1232'> +1.1973555e+02 </wgt>
<wgt id='1233'> +1.1339157e+02 </wgt>
<wgt id='1234'> +1.0671903e+02 </wgt>
<wgt id='1235'> +1.1310142e+02 </wgt>
<wgt id='1236'> +1.1735254e+02 </wgt>
<wgt id='1237'> +1.1773513e+02 </wgt>
<wgt id='1238'> +1.1465469e+02 </wgt>
<wgt id='1239'> +1.1727173e+02 </wgt>
<wgt id='1240'> +9.3338679e+01 </wgt>
<wgt id='1241'> +1.1630125e+02 </wgt>
<wgt id='1242'> +1.1919750e+02 </wgt>
<wgt id='1243'> +1.0636548e+02 </wgt>
<wgt id='1244'> +1.0961059e+02 </wgt>
<wgt id='1245'> +1.1565892e+02 </wgt>
<wgt id='1246'> +1.1839701e+02 </wgt>
<wgt id='1247'> +1.1794552e+02 </wgt>
<wgt id='1248'> +1.1739084e+02 </wgt>
<wgt id='1249'> +1.1466999e+02 </wgt>
<wgt id='1250'> +1.1746830e+02 </wgt>
<wgt id='1251'> +1.1908061e+02 </wgt>
<wgt id='1252'> +1.1608414e+02 </wgt>
<wgt id='1253'> +1.1587420e+02 </wgt>
<wgt id='1254'> +1.1623423e+02 </wgt>
<wgt id='1255'> +1.1616632e+02 </wgt>
<wgt id='1256'> +1.1615121e+02 </wgt>
<wgt id='1257'> +1.1617634e+02 </wgt>
<wgt id='1258'> +1.1623338e+02 </wgt>
<wgt id='1259'> +1.1600928e+02 </wgt>
<wgt id='1260'> +1.1612272e+02 </wgt>
<wgt id='1261'> +1.1655954e+02 </wgt>
<wgt id='1262'> +1.1581140e+02 </wgt>
<wgt id='1263'> +1.1561088e+02 </wgt>
<wgt id='1264'> +1.1621518e+02 </wgt>
<wgt id='1265'> +1.1574574e+02 </wgt>
<wgt id='1266'> +1.1670308e+02 </wgt>
<wgt id='1267'> +1.1638867e+02 </wgt>
<wgt id='1268'> +1.1680363e+02 </wgt>
<wgt id='1269'> +1.1573364e+02 </wgt>
<wgt id='1270'> +1.1576723e+02 </wgt>
<wgt id='1271'> +1.1600128e+02 </wgt>
<wgt id='1272'> +1.1588153e+02 </wgt>
<wgt id='1273'> +1.1652071e+02 </wgt>
<wgt id='1274'> +1.1635602e+02 </wgt>
<wgt id='1275'> +1.1514065e+02 </wgt>
<wgt id='1276'> +1.1648562e+02 </wgt>
<wgt id='1277'> +1.1629741e+02 </wgt>
<wgt id='1278'> +1.1536058e+02 </wgt>
<wgt id='1279'> +1.1666172e+02 </wgt>
<wgt id='1280'> +1.1655754e+02 </wgt>
<wgt id='1281'> +1.1445891e+02 </wgt>
<wgt id='1282'> +1.1462375e+02 </wgt>
<wgt id='1283'> +1.1646323e+02 </wgt>
<wgt id='1284'> +1.1594541e+02 </wgt>
<wgt id='1285'> +1.1656549e+02 </wgt>
<wgt id='1286'> +1.1592796e+02 </wgt>
<wgt id='1287'> +1.1743997e+02 </wgt>
<wgt id='1288'> +1.1631049e+02 </wgt>
<wgt id='1289'> +1.1532601e+02 </wgt>
<wgt id='1290'> +1.1646435e+02 </wgt>
<wgt id='1291'> +1.1583134e+02 </wgt>
<wgt id='1292'> +1.1614748e+02 </wgt>
<wgt id='1293'> +1.1590324e+02 </wgt>
<wgt id='1294'> +1.1626320e+02 </wgt>
<wgt id='1295'> +1.1608538e+02 </wgt>
<wgt id='1296'> +1.1656846e+02 </wgt>
<wgt id='1297'> +1.1550854e+02 </wgt>
<wgt id='1298'> +1.1579668e+02 </wgt>
<wgt id='1299'> +1.1605560e+02 </wgt>
<wgt id='1300'> +1.1597348e+02 </wgt>
<wgt id='1301'> +1.1656758e+02 </wgt>
<wgt id='1302'> +1.1659687e+02 </wgt>
<wgt id='1303'> +1.1663386e+02 </wgt>
<wgt id='1304'> +1.1576046e+02 </wgt>
<wgt id='1305'> +1.1610046e+02 </wgt>
<wgt id='1306'> +1.1637066e+02 </wgt>
<wgt id='1307'> +1.1617589e+02 </wgt>
<wgt id='1308'> +1.1611737e+02 </wgt>
<wgt id='1309'> +1.1581743e+02 </wgt>
<wgt id='1310'> +1.1622568e+02 </wgt>
<wgt id='1311'> +1.1594122e+02 </wgt>
<wgt id='1312'> +1.1577285e+02 </wgt>
<wgt id='1313'> +1.1600288e+02 </wgt>
<wgt id='1314'> +1.1593289e+02 </wgt>
<wgt id='1315'> +1.1614519e+02 </wgt>
<wgt id='1316'> +1.1599899e+02 </wgt>
<wgt id='1317'> +1.1619627e+02 </wgt>
<wgt id='1318'> +1.1615621e+02 </wgt>
<wgt id='1319'> +1.1595265e+02 </wgt>
<wgt id='1320'> +1.1614746e+02 </wgt>
<wgt id='1321'> +1.1585529e+02 </wgt>
<wgt id='1322'> +1.1615415e+02 </wgt>
<wgt id='1323'> +1.1568626e+02 </wgt>
<wgt id='1324'> +1.1622948e+02 </wgt>
<wgt id='1325'> +1.1599669e+02 </wgt>
<wgt id='1326'> +1.1618501e+02 </wgt>
<wgt id='1327'> +1.1595978e+02 </wgt>
<wgt id='1328'> +1.1595271e+02 </wgt>
<wgt id='1329'> +1.1601013e+02 </wgt>
<wgt id='1330'> +1.1595401e+02 </wgt>
<wgt id='1331'> +1.1651706e+02 </wgt>
<wgt id='1332'> +1.1592511e+02 </wgt>
<wgt id='1333'> +1.1609376e+02 </wgt>
<wgt id='1334'> +1.1589984e+02 </wgt>
<wgt id='1335'> +1.1608255e+02 </wgt>
<wgt id='1336'> +1.1590168e+02 </wgt>
<wgt id='1337'> +1.1608888e+02 </wgt>
<wgt id='1338'> +1.1602998e+02 </wgt>
<wgt id='1339'> +1.1601264e+02 </wgt>
<wgt id='1340'> +1.1608490e+02 </wgt>
<wgt id='1341'> +1.1602202e+02 </wgt>
<wgt id='1342'> +1.1607356e+02 </wgt>
<wgt id='1343'> +1.1624868e+02 </wgt>
<wgt id='1344'> +1.1610209e+02 </wgt>
<wgt id='1345'> +1.1597183e+02 </wgt>
<wgt id='1346'> +1.1618492e+02 </wgt>
<wgt id='1347'> +1.1600726e+02 </wgt>
<wgt id='1348'> +1.1605103e+02 </wgt>
<wgt id='1349'> +1.1629389e+02 </wgt>
<wgt id='1350'> +1.1602640e+02 </wgt>
<wgt id='1351'> +1.1604804e+02 </wgt>
<wgt id='1352'> +1.1624314e+02 </wgt>
<wgt id='1353'> +1.1356745e+02 </wgt>
<wgt id='1354'> +1.1890320e+02 </wgt>
<wgt id='1355'> +1.0288138e+02 </wgt>
<wgt id='1356'> +1.0500746e+02 </wgt>
<wgt id='1357'> +1.0847606e+02 </wgt>
<wgt id='1358'> +1.1157058e+02 </wgt>
<wgt id='1359'> +1.1489686e+02 </wgt>
<wgt id='1360'> +1.1712882e+02 </wgt>
<wgt id='1361'> +1.2164492e+02 </wgt>
<wgt id='1362'> +1.2366249e+02 </wgt>
<wgt id='1363'> +1.1595240e+02 </wgt>
<wgt id='1364'> +1.1596818e+02 </wgt>
<wgt id='1365'> +1.1584859e+02 </wgt>
<wgt id='1366'> +1.1601375e+02 </wgt>
<wgt id='1367'> +1.1609507e+02 </wgt>
<wgt id='1368'> +1.1607639e+02 </wgt>
<wgt id='1369'> +1.1590488e+02 </wgt>
<wgt id='1370'> +1.1623917e+02 </wgt>
<wgt id='1371'> +1.1611341e+02 </wgt>
<wgt id='1372'> +1.1639135e+02 </wgt>
<wgt id='1373'> +1.1559432e+02 </wgt>
<wgt id='1374'> +1.1576886e+02 </wgt>
<wgt id='1375'> +1.1581064e+02 </wgt>
<wgt id='1376'> +1.1631215e+02 </wgt>
<wgt id='1377'> +1.1642645e+02 </wgt>
<wgt id='1378'> +1.1549155e+02 </wgt>
<wgt id='1379'> +1.1654354e+02 </wgt>
<wgt id='1380'> +1.1561397e+02 </wgt>
<wgt id='1381'> +1.1598814e+02 </wgt>
<wgt id='1382'> +1.1555373e+02 </wgt>
<wgt id='1383'> +1.1554547e+02 </wgt>
<wgt id='1384'> +1.1668471e+02 </wgt>
<wgt id='1385'> +1.1605375e+02 </wgt>
<wgt id='1386'> +1.1608120e+02 </wgt>
<wgt id='1387'> +1.1628009e+02 </wgt>
<wgt id='1388'> +1.1541756e+02 </wgt>
<wgt id='1389'> +1.1579471e+02 </wgt>
<wgt id='1390'> +1.1591785e+02 </wgt>
<wgt id='1391'> +1.1640686e+02 </wgt>
<wgt id='1392'> +1.1630262e+02 </wgt>
<wgt id='1393'> +1.1416764e+02 </wgt>
<wgt id='1394'> +1.1622964e+02 </wgt>
<wgt id='1395'> +1.1563367e+02 </wgt>
<wgt id='1396'> +1.1659746e+02 </wgt>
<wgt id='1397'> +1.1560837e+02 </wgt>
<wgt id='1398'> +1.1587079e+02 </wgt>
<wgt id='1399'> +1.1511051e+02 </wgt>
<wgt id='1400'> +1.1555554e+02 </wgt>
<wgt id='1401'> +1.1509152e+02 </wgt>
<wgt id='1402'> +1.1589533e+02 </wgt>
<wgt id='1403'> +1.1578096e+02 </wgt>
<wgt id='1404'> +1.1544884e+02 </wgt>
<wgt id='1405'> +1.1578545e+02 </wgt>
<wgt id='1406'> +1.1672456e+02 </wgt>
<wgt id='1407'> +1.1568428e+02 </wgt>
<wgt id='1408'> +1.1606882e+02 </wgt>
<wgt id='1409'> +1.1554770e+02 </wgt>
<wgt id='1410'> +1.1619753e+02 </wgt>
<wgt id='1411'> +1.1668659e+02 </wgt>
<wgt id='1412'> +1.1544538e+02 </wgt>
<wgt id='1413'> +1.1620691e+02 </wgt>
<wgt id='1414'> +1.1687511e+02 </wgt>
<wgt id='1415'> +1.1610926e+02 </wgt>
<wgt id='1416'> +1.1605790e+02 </wgt>
<wgt id='1417'> +1.1635220e+02 </wgt>
<wgt id='1418'> +1.1569670e+02 </wgt>
<wgt id='1419'> +1.1583449e+02 </wgt>
<wgt id='1420'> +1.1573759e+02 </wgt>
<wgt id='1421'> +1.1578781e+02 </wgt>
<wgt id='1422'> +1.1594783e+02 </wgt>
<wgt id='1423'> +1.1625089e+02 </wgt>
<wgt id='1424'> +1.1606380e+02 </wgt>
<wgt id='1425'> +1.1613427e+02 </wgt>
<wgt id='1426'> +1.1599855e+02 </wgt>
<wgt id='1427'> +1.1605418e+02 </wgt>
<wgt id='1428'> +1.1587569e+02 </wgt>
<wgt id='1429'> +1.1605124e+02 </wgt>
<wgt id='1430'> +1.1589671e+02 </wgt>
<wgt id='1431'> +1.1574073e+02 </wgt>
<wgt id='1432'> +1.1586299e+02 </wgt>
<wgt id='1433'> +1.1598843e+02 </wgt>
<wgt id='1434'> +1.1592677e+02 </wgt>
<wgt id='1435'> +1.1601652e+02 </wgt>
<wgt id='1436'> +1.1570846e+02 </wgt>
<wgt id='1437'> +1.1597680e+02 </wgt>
<wgt id='1438'> +1.1630067e+02 </wgt>
<wgt id='1439'> +1.1582685e+02 </wgt>
<wgt id='1440'> +1.1603205e+02 </wgt>
<wgt id='1441'> +1.1582707e+02 </wgt>
<wgt id='1442'> +1.1612389e+02 </wgt>
<wgt id='1443'> +1.1579044e+02 </wgt>
<wgt id='1444'> +1.1572990e+02 </wgt>
<wgt id='1445'> +1.1605052e+02 </wgt>
<wgt id='1446'> +1.1593585e+02 </wgt>
<wgt id='1447'> +1.1616005e+02 </wgt>
<wgt id='1448'> +1.1594604e+02 </wgt>
<wgt id='1449'> +1.1584817e+02 </wgt>
<wgt id='1450'> +1.1584478e+02 </wgt>
<wgt id='1451'> +1.1604773e+02 </wgt>
<wgt id='1452'> +1.1621622e+02 </wgt>
<wgt id='1453'> +1.1595725e+02 </wgt>
<wgt id='1454'> +1.1596905e+02 </wgt>
<wgt id='1455'> +1.1612176e+02 </wgt>
<wgt id='1456'> +1.1598392e+02 </wgt>
<wgt id='1457'> +1.1596054e+02 </wgt>
<wgt id='1458'> +1.1617354e+02 </wgt>
<wgt id='1459'> +1.1605977e+02 </wgt>
<wgt id='1460'> +1.1595273e+02 </wgt>
<wgt id='1461'> +1.1566796e+02 </wgt>
<wgt id='1462'> +1.1612065e+02 </wgt>
<wgt id='1463'> +1.1606659e+02 </wgt>
<wgt id='1464'> +1.1362133e+02 </wgt>
<wgt id='1465'> +1.1866865e+02 </wgt>
<wgt id='1466'> +1.0838823e+02 </wgt>
<wgt id='1467'> +1.0642142e+02 </wgt>
<wgt id='1468'> +1.0769293e+02 </wgt>
<wgt id='1469'> +1.0707847e+02 </wgt>
<wgt id='1470'> +1.0831760e+02 </wgt>
<wgt id='1471'> +1.0821982e+02 </wgt>
<wgt id='1472'> +1.0742682e+02 </wgt>
<wgt id='1473'> +1.0722136e+02 </wgt>
<wgt id='1474'> +1.1080327e+02 </wgt>
<wgt id='1475'> +1.0986308e+02 </wgt>
<wgt id='1476'> +1.0675018e+02 </wgt>
<wgt id='1477'> +1.0961410e+02 </wgt>
<wgt id='1478'> +1.0577977e+02 </wgt>
<wgt id='1479'> +1.0874611e+02 </wgt>
<wgt id='1480'> +1.0857058e+02 </wgt>
<wgt id='1481'> +1.0881763e+02 </wgt>
<wgt id='1482'> +1.0663866e+02 </wgt>
<wgt id='1483'> +1.0994982e+02 </wgt>
<wgt id='1484'> +1.0669196e+02 </wgt>
<wgt id='1485'> +1.0980934e+02 </wgt>
<wgt id='1486'> +1.0704199e+02 </wgt>
<wgt id='1487'> +1.0910633e+02 </wgt>
<wgt id='1488'> +1.0797825e+02 </wgt>
<wgt id='1489'> +1.1071647e+02 </wgt>
<wgt id='1490'> +1.0583940e+02 </wgt>
<wgt id='1491'> +1.0838708e+02 </wgt>
<wgt id='1492'> +1.0838953e+02 </wgt>
<wgt id='1493'> +1.0853579e+02 </wgt>
<wgt id='1494'> +1.0818782e+02 </wgt>
<wgt id='1495'> +1.1117844e+02 </wgt>
<wgt id='1496'> +1.0660841e+02 </wgt>
<wgt id='1497'> +1.0823153e+02 </wgt>
<wgt id='1498'> +1.0860064e+02 </wgt>
<wgt id='1499'> +1.1141870e+02 </wgt>
<wgt id='1500'> +1.0561626e+02 </wgt>
<wgt id='1501'> +1.0929130e+02 </wgt>
<wgt id='1502'> +1.0750505e+02 </wgt>
<wgt id='1503'> +1.1137391e+02 </wgt>
<wgt id='1504'> +1.0510807e+02 </wgt>
<wgt id='1505'> +1.1065308e+02 </wgt>
<wgt id='1506'> +1.0506120e+02 </wgt>
<wgt id='1507'> +1.0678110e+02 </wgt>
<wgt id='1508'> +1.0961640e+02 </wgt>
<wgt id='1509'> +1.0949652e+02 </wgt>
<wgt id='1510'> +1.0761645e+02 </wgt>
<wgt id='1511'> +1.0527272e+02 </wgt>
<wgt id='1512'> +1.1009801e+02 </wgt>
<wgt id='1513'> +1.1097920e+02 </wgt>
<wgt id='1514'> +1.0620595e+02 </wgt>
<wgt id='1515'> +1.0929145e+02 </wgt>
<wgt id='1516'> +1.0819129e+02 </wgt>
<wgt id='1517'> +1.0752901e+02 </wgt>
<wgt id='1518'> +1.0980275e+02 </wgt>
<wgt id='1519'> +1.1050504e+02 </wgt>
<wgt id='1520'> +1.1017738e+02 </wgt>
<wgt id='1521'> +1.0798408e+02 </wgt>
<wgt id='1522'> +1.1139261e+02 </wgt>
<wgt id='1523'> +1.0595504e+02 </wgt>
<wgt id='1524'> +1.1078739e+02 </wgt>
<wgt id='1525'> +1.1055252e+02 </wgt>
<wgt id='1526'> +1.1144641e+02 </wgt>
<wgt id='1527'> +1.1028831e+02 </wgt>
<wgt id='1528'> +1.0985853e+02 </wgt>
<wgt id='1529'> +1.1024326e+02 </wgt>
<wgt id='1530'> +1.1078854e+02 </wgt>
<wgt id='1531'> +1.1088968e+02 </wgt>
<wgt id='1532'> +1.1099606e+02 </wgt>
<wgt id='1533'> +1.1037066e+02 </wgt>
<wgt id='1534'> +1.1109157e+02 </wgt>
<wgt id='1535'> +1.0936453e+02 </wgt>
<wgt id='1536'> +1.0623329e+02 </wgt>
<wgt id='1537'> +1.1380083e+02 </wgt>
<wgt id='1538'> +1.0924362e+02 </wgt>
<wgt id='1539'> +1.1121875e+02 </wgt>
<wgt id='1540'> +1.1235569e+02 </wgt>
<wgt id='1541'> +1.0712223e+02 </wgt>
<wgt id='1542'> +1.1454581e+02 </wgt>
<wgt id='1543'> +1.0598826e+02 </wgt>
<wgt id='1544'> +1.1157436e+02 </wgt>
<wgt id='1545'> +1.0948424e+02 </wgt>
<wgt id='1546'> +1.1116828e+02 </wgt>
<wgt id='1547'> +1.0939171e+02 </wgt>
<wgt id='1548'> +1.0994428e+02 </wgt>
<wgt id='1549'> +1.1129797e+02 </wgt>
<wgt id='1550'> +1.0974734e+02 </wgt>
<wgt id='1551'> +1.1112938e+02 </wgt>
<wgt id='1552'> +1.1050270e+02 </wgt>
<wgt id='1553'> +1.1068709e+02 </wgt>
<wgt id='1554'> +1.1186461e+02 </wgt>
<wgt id='1555'> +1.1009996e+02 </wgt>
<wgt id='1556'> +1.1184101e+02 </wgt>
<wgt id='1557'> +1.0889199e+02 </wgt>
<wgt id='1558'> +1.1012743e+02 </wgt>
<wgt id='1559'> +1.1152309e+02 </wgt>
<wgt id='1560'> +1.1183979e+02 </wgt>
<wgt id='1561'> +1.0945902e+02 </wgt>
<wgt id='1562'> +1.1064111e+02 </wgt>
<wgt id='1563'> +1.0975655e+02 </wgt>
<wgt id='1564'> +1.0799167e+02 </wgt>
<wgt id='1565'> +1.1169048e+02 </wgt>
<wgt id='1566'> +1.0954154e+02 </wgt>
<wgt id='1567'> +1.1227060e+02 </wgt>
<wgt id='1568'> +1.1042532e+02 </wgt>
<wgt id='1569'> +1.1012455e+02 </wgt>
<wgt id='1570'> +1.1067852e+02 </wgt>
<wgt id='1571'> +1.0900601e+02 </wgt>
<wgt id='1572'> +1.0825305e+02 </wgt>
<wgt id='1573'> +1.1154907e+02 </wgt>
<wgt id='1574'> +1.0848050e+02 </wgt>
<wgt id='1575'> +1.1202997e+02 </wgt>
<wgt id='1576'> +1.1000452e+02 </wgt>
<wgt id='1577'> +1.0802734e+02 </wgt>
<wgt id='1578'> +1.0972271e+02 </wgt>
<wgt id='1579'> +1.1016452e+02 </wgt>
<wgt id='1580'> +1.1099517e+02 </wgt>
<wgt id='1581'> +1.1258609e+02 </wgt>
<wgt id='1582'> +1.0791526e+02 </wgt>
<wgt id='1583'> +1.1298886e+02 </wgt>
<wgt id='1584'> +1.0470231e+02 </wgt>
<wgt id='1585'> +1.0986082e+02 </wgt>
<wgt id='1586'> +1.0932895e+02 </wgt>
<wgt id='1587'> +1.1043093e+02 </wgt>
<wgt id='1588'> +1.0972614e+02 </wgt>
<wgt id='1589'> +1.0995179e+02 </wgt>
<wgt id='1590'> +1.0944581e+02 </wgt>
<wgt id='1591'> +1.1025814e+02 </wgt>
<wgt id='1592'> +1.0979545e+02 </wgt>
<wgt id='1593'> +1.0993294e+02 </wgt>
<wgt id='1594'> +1.0944798e+02 </wgt>
<wgt id='1595'> +1.1027650e+02 </wgt>
<wgt id='1596'> +1.0945559e+02 </wgt>
<wgt id='1597'> +1.1075797e+02 </wgt>
<wgt id='1598'> +1.1057645e+02 </wgt>
<wgt id='1599'> +1.0859074e+02 </wgt>
<wgt id='1600'> +1.0962617e+02 </wgt>
<wgt id='1601'> +1.0999249e+02 </wgt>
<wgt id='1602'> +1.1017618e+02 </wgt>
<wgt id='1603'> +1.0950661e+02 </wgt>
<wgt id='1604'> +1.0852731e+02 </wgt>
<wgt id='1605'> +1.1102439e+02 </wgt>
<wgt id='1606'> +1.1066578e+02 </wgt>
<wgt id='1607'> +1.0880046e+02 </wgt>
<wgt id='1608'> +1.1084151e+02 </wgt>
<wgt id='1609'> +1.0922143e+02 </wgt>
<wgt id='1610'> +1.1011314e+02 </wgt>
<wgt id='1611'> +1.0960171e+02 </wgt>
<wgt id='1612'> +1.0928741e+02 </wgt>
<wgt id='1613'> +1.0972282e+02 </wgt>
<wgt id='1614'> +1.0986527e+02 </wgt>
<wgt id='1615'> +1.0981571e+02 </wgt>
<wgt id='1616'> +1.1225408e+02 </wgt>
<wgt id='1617'> +1.0722896e+02 </wgt>
<wgt id='1618'> +1.0954732e+02 </wgt>
<wgt id='1619'> +1.1008786e+02 </wgt>
<wgt id='1620'> +1.1002851e+02 </wgt>
<wgt id='1621'> +1.0941934e+02 </wgt>
<wgt id='1622'> +1.0978134e+02 </wgt>
<wgt id='1623'> +1.0987806e+02 </wgt>
<wgt id='1624'> +1.0941500e+02 </wgt>
<wgt id='1625'> +1.1028769e+02 </wgt>
<wgt id='1626'> +1.0723326e+02 </wgt>
<wgt id='1627'> +1.1321004e+02 </wgt>
<wgt id='1628'> +1.1007166e+02 </wgt>
<wgt id='1629'> +1.0927703e+02 </wgt>
<wgt id='1630'> +1.0888673e+02 </wgt>
<wgt id='1631'> +1.1240374e+02 </wgt>
<wgt id='1632'> +1.0983465e+02 </wgt>
<wgt id='1633'> +1.0943883e+02 </wgt>
<wgt id='1634'> +1.1026372e+02 </wgt>
<wgt id='1635'> +1.0935874e+02 </wgt>
<wgt id='1636'> +1.1223928e+02 </wgt>
<wgt id='1637'> +1.1173342e+02 </wgt>
<wgt id='1638'> +1.1289409e+02 </wgt>
<wgt id='1639'> +1.1187412e+02 </wgt>
<wgt id='1640'> +1.1260736e+02 </wgt>
<wgt id='1641'> +1.1201392e+02 </wgt>
<wgt id='1642'> +1.1232952e+02 </wgt>
<wgt id='1643'> +1.1197137e+02 </wgt>
<wgt id='1644'> +1.1250833e+02 </wgt>
<wgt id='1645'> +1.1214504e+02 </wgt>
<wgt id='1646'> +1.1233500e+02 </wgt>
<wgt id='1647'> +1.1345556e+02 </wgt>
<wgt id='1648'> +1.1172267e+02 </wgt>
<wgt id='1649'> +1.1269897e+02 </wgt>
<wgt id='1650'> +1.1168563e+02 </wgt>
<wgt id='1651'> +1.1288821e+02 </wgt>
<wgt id='1652'> +1.1153448e+02 </wgt>
<wgt id='1653'> +1.1167131e+02 </wgt>
<wgt id='1654'> +1.1255720e+02 </wgt>
<wgt id='1655'> +1.1305666e+02 </wgt>
<wgt id='1656'> +1.1114093e+02 </wgt>
<wgt id='1657'> +1.1084459e+02 </wgt>
<wgt id='1658'> +1.1321167e+02 </wgt>
<wgt id='1659'> +1.1069599e+02 </wgt>
<wgt id='1660'> +1.1373387e+02 </wgt>
<wgt id='1661'> +1.1185285e+02 </wgt>
<wgt id='1662'> +1.1321567e+02 </wgt>
<wgt id='1663'> +1.1189836e+02 </wgt>
<wgt id='1664'> +1.1184746e+02 </wgt>
<wgt id='1665'> +1.1174550e+02 </wgt>
<wgt id='1666'> +1.1362661e+02 </wgt>
<wgt id='1667'> +1.1355234e+02 </wgt>
<wgt id='1668'> +1.0950547e+02 </wgt>
<wgt id='1669'> +1.1193611e+02 </wgt>
<wgt id='1670'> +1.1265987e+02 </wgt>
<wgt id='1671'> +1.1172519e+02 </wgt>
<wgt id='1672'> +1.1235697e+02 </wgt>
<wgt id='1673'> +1.1191702e+02 </wgt>
<wgt id='1674'> +1.1182746e+02 </wgt>
<wgt id='1675'> +1.1178276e+02 </wgt>
<wgt id='1676'> +1.1249365e+02 </wgt>
<wgt id='1677'> +1.1450900e+02 </wgt>
<wgt id='1678'> +1.0847860e+02 </wgt>
<wgt id='1679'> +1.1215206e+02 </wgt>
<wgt id='1680'> +1.1231362e+02 </wgt>
<wgt id='1681'> +1.1145869e+02 </wgt>
<wgt id='1682'> +1.1291160e+02 </wgt>
<wgt id='1683'> +1.1413531e+02 </wgt>
<wgt id='1684'> +1.1138906e+02 </wgt>
<wgt id='1685'> +1.1209080e+02 </wgt>
<wgt id='1686'> +1.1204119e+02 </wgt>
<wgt id='1687'> +1.2802255e+02 </wgt>
<wgt id='1688'> +1.0815933e+02 </wgt>
<wgt id='1689'> +1.0814867e+02 </wgt>
<wgt id='1690'> +1.0818089e+02 </wgt>
<wgt id='1691'> +1.0798769e+02 </wgt>
<wgt id='1692'> +1.0816469e+02 </wgt>
<wgt id='1693'> +1.0848686e+02 </wgt>
<wgt id='1694'> +1.0757150e+02 </wgt>
<wgt id='1695'> +1.0856112e+02 </wgt>
<wgt id='1696'> +1.0824278e+02 </wgt>
<wgt id='1697'> +1.0722666e+02 </wgt>
<wgt id='1698'> +1.0821545e+02 </wgt>
<wgt id='1699'> +1.0839630e+02 </wgt>
<wgt id='1700'> +1.0857936e+02 </wgt>
<wgt id='1701'> +1.0817725e+02 </wgt>
<wgt id='1702'> +1.0821883e+02 </wgt>
<wgt id='1703'> +1.0807845e+02 </wgt>
<wgt id='1704'> +1.0767196e+02 </wgt>
<wgt id='1705'> +1.0793123e+02 </wgt>
<wgt id='1706'> +1.0793169e+02 </wgt>
<wgt id='1707'> +1.0840889e+02 </wgt>
<wgt id='1708'> +1.0837633e+02 </wgt>
<wgt id='1709'> +1.0771743e+02 </wgt>
<wgt id='1710'> +1.0813002e+02 </wgt>
<wgt id='1711'> +1.0854326e+02 </wgt>
<wgt id='1712'> +1.0850917e+02 </wgt>
<wgt id='1713'> +1.0793417e+02 </wgt>
<wgt id='1714'> +1.0868434e+02 </wgt>
<wgt id='1715'> +1.0846236e+02 </wgt>
<wgt id='1716'> +1.0792053e+02 </wgt>
<wgt id='1717'> +1.0720068e+02 </wgt>
<wgt id='1718'> +1.1083018e+02 </wgt>
<wgt id='1719'> +1.1073202e+02 </wgt>
<wgt id='1720'> +1.1018707e+02 </wgt>
<wgt id='1721'> +1.1137027e+02 </wgt>
<wgt id='1722'> +1.1064600e+02 </wgt>
<wgt id='1723'> +1.1106947e+02 </wgt>
<wgt id='1724'> +1.1019243e+02 </wgt>
<wgt id='1725'> +1.1103118e+02 </wgt>
<wgt id='1726'> +1.1109973e+02 </wgt>
<wgt id='1727'> +1.1128575e+02 </wgt>
<wgt id='1728'> +1.1122374e+02 </wgt>
<wgt id='1729'> +1.0983825e+02 </wgt>
<wgt id='1730'> +1.1079743e+02 </wgt>
<wgt id='1731'> +1.1020219e+02 </wgt>
<wgt id='1732'> +1.1035621e+02 </wgt>
<wgt id='1733'> +1.1086994e+02 </wgt>
<wgt id='1734'> +1.0943874e+02 </wgt>
<wgt id='1735'> +1.1135757e+02 </wgt>
<wgt id='1736'> +1.1275235e+02 </wgt>
<wgt id='1737'> +1.1015542e+02 </wgt>
<wgt id='1738'> +1.1100245e+02 </wgt>
<wgt id='1739'> +1.1147452e+02 </wgt>
<wgt id='1740'> +1.1062661e+02 </wgt>
<wgt id='1741'> +1.1278619e+02 </wgt>
<wgt id='1742'> +1.1027208e+02 </wgt>
<wgt id='1743'> +1.1026816e+02 </wgt>
<wgt id='1744'> +1.1054072e+02 </wgt>
<wgt id='1745'> +1.1165169e+02 </wgt>
<wgt id='1746'> +1.1078434e+02 </wgt>
<wgt id='1747'> +1.1068695e+02 </wgt>
<wgt id='1748'> +1.1172066e+02 </wgt>
<wgt id='1749'> +1.1030179e+02 </wgt>
<wgt id='1750'> +1.1162050e+02 </wgt>
<wgt id='1751'> +1.1168652e+02 </wgt>
<wgt id='1752'> +1.1093408e+02 </wgt>
<wgt id='1753'> +1.1165291e+02 </wgt>
<wgt id='1754'> +1.1048183e+02 </wgt>
<wgt id='1755'> +1.1138494e+02 </wgt>
<wgt id='1756'> +1.1003424e+02 </wgt>
<wgt id='1757'> +1.1072152e+02 </wgt>
<wgt id='1758'> +1.1081385e+02 </wgt>
<wgt id='1759'> +1.1090438e+02 </wgt>
<wgt id='1760'> +1.1103514e+02 </wgt>
<wgt id='1761'> +1.1058359e+02 </wgt>
<wgt id='1762'> +1.1127394e+02 </wgt>
<wgt id='1763'> +1.1094851e+02 </wgt>
<wgt id='1764'> +1.1097595e+02 </wgt>
<wgt id='1765'> +1.1055557e+02 </wgt>
<wgt id='1766'> +1.1054802e+02 </wgt>
<wgt id='1767'> +1.1081017e+02 </wgt>
<wgt id='1768'> +1.1075753e+02 </wgt>
<wgt id='1769'> +1.1028101e+02 </wgt>
<wgt id='1770'> +1.1074065e+02 </wgt>
<wgt id='1771'> +1.1104165e+02 </wgt>
<wgt id='1772'> +1.1093156e+02 </wgt>
<wgt id='1773'> +1.1072263e+02 </wgt>
<wgt id='1774'> +1.1084231e+02 </wgt>
<wgt id='1775'> +1.1099222e+02 </wgt>
<wgt id='1776'> +1.1126594e+02 </wgt>
<wgt id='1777'> +1.1113891e+02 </wgt>
<wgt id='1778'> +1.1056713e+02 </wgt>
<wgt id='1779'> +1.1061686e+02 </wgt>
<wgt id='1780'> +1.1075222e+02 </wgt>
<wgt id='1781'> +1.1112944e+02 </wgt>
<wgt id='1782'> +1.1084601e+02 </wgt>
<wgt id='1783'> +1.1083218e+02 </wgt>
<wgt id='1784'> +1.1122134e+02 </wgt>
<wgt id='1785'> +1.1084435e+02 </wgt>
<wgt id='1786'> +1.1093326e+02 </wgt>
<wgt id='1787'> +1.1076164e+02 </wgt>
<wgt id='1788'> +1.1066205e+02 </wgt>
<wgt id='1789'> +1.1076504e+02 </wgt>
<wgt id='1790'> +1.1083698e+02 </wgt>
<wgt id='1791'> +1.1083276e+02 </wgt>
<wgt id='1792'> +1.1083308e+02 </wgt>
<wgt id='1793'> +1.1081258e+02 </wgt>
<wgt id='1794'> +1.1073573e+02 </wgt>
<wgt id='1795'> +1.1082014e+02 </wgt>
<wgt id='1796'> +1.1078206e+02 </wgt>
<wgt id='1797'> +1.1082073e+02 </wgt>
<wgt id='1798'> +1.1081605e+02 </wgt>
<wgt id='1799'> +1.1093024e+02 </wgt>
<wgt id='1800'> +1.1077592e+02 </wgt>
<wgt id='1801'> +1.1079044e+02 </wgt>
<wgt id='1802'> +1.1088624e+02 </wgt>
<wgt id='1803'> +1.1092222e+02 </wgt>
<wgt id='1804'> +1.1088315e+02 </wgt>
<wgt id='1805'> +1.1082036e+02 </wgt>
<wgt id='1806'> +1.1084386e+02 </wgt>
<wgt id='1807'> +1.1073673e+02 </wgt>
<wgt id='1808'> +1.1086174e+02 </wgt>
<wgt id='1809'> +1.1076711e+02 </wgt>
<wgt id='1810'> +1.1081775e+02 </wgt>
<wgt id='1811'> +1.1085568e+02 </wgt>
<wgt id='1812'> +1.1081538e+02 </wgt>
<wgt id='1813'> +1.1074470e+02 </wgt>
<wgt id='1814'> +1.1080076e+02 </wgt>
<wgt id='1815'> +1.1088775e+02 </wgt>
<wgt id='1816'> +1.1083814e+02 </wgt>
<wgt id='1817'> +1.1079525e+02 </wgt>
<wgt id='1818'> +1.1086094e+02 </wgt>
<wgt id='1819'> +1.0852479e+02 </wgt>
<wgt id='1820'> +1.1259404e+02 </wgt>
<wgt id='1821'> +1.1077309e+02 </wgt>
<wgt id='1822'> +1.1081726e+02 </wgt>
<wgt id='1823'> +1.1086048e+02 </wgt>
<wgt id='1824'> +1.1051505e+02 </wgt>
<wgt id='1825'> +1.1131776e+02 </wgt>
<wgt id='1826'> +1.1116125e+02 </wgt>
<wgt id='1827'> +1.1088984e+02 </wgt>
<wgt id='1828'> +1.1110151e+02 </wgt>
<wgt id='1829'> +1.1080461e+02 </wgt>
<wgt id='1830'> +1.1057678e+02 </wgt>
<wgt id='1831'> +1.1025669e+02 </wgt>
<wgt id='1832'> +1.1168097e+02 </wgt>
<wgt id='1833'> +1.1116075e+02 </wgt>
<wgt id='1834'> +1.1062067e+02 </wgt>
<wgt id='1835'> +1.1097545e+02 </wgt>
<wgt id='1836'> +1.1249549e+02 </wgt>
<wgt id='1837'> +1.1033308e+02 </wgt>
<wgt id='1838'> +1.1066206e+02 </wgt>
<wgt id='1839'> +1.1174804e+02 </wgt>
<wgt id='1840'> +1.0931984e+02 </wgt>
<wgt id='1841'> +1.1031008e+02 </wgt>
<wgt id='1842'> +1.1137947e+02 </wgt>
<wgt id='1843'> +1.0875528e+02 </wgt>
<wgt id='1844'> +1.1125877e+02 </wgt>
<wgt id='1845'> +1.1215960e+02 </wgt>
<wgt id='1846'> +1.1052136e+02 </wgt>
<wgt id='1847'> +1.1017321e+02 </wgt>
<wgt id='1848'> +1.1113235e+02 </wgt>
<wgt id='1849'> +1.1033564e+02 </wgt>
<wgt id='1850'> +1.0967350e+02 </wgt>
<wgt id='1851'> +1.1045144e+02 </wgt>
<wgt id='1852'> +1.1010230e+02 </wgt>
<wgt id='1853'> +1.1093206e+02 </wgt>
<wgt id='1854'> +1.0947431e+02 </wgt>
<wgt id='1855'> +1.0985003e+02 </wgt>
<wgt id='1856'> +1.1129784e+02 </wgt>
<wgt id='1857'> +1.1061595e+02 </wgt>
<wgt id='1858'> +1.1133908e+02 </wgt>
<wgt id='1859'> +1.1094606e+02 </wgt>
<wgt id='1860'> +1.1073393e+02 </wgt>
<wgt id='1861'> +1.1015972e+02 </wgt>
<wgt id='1862'> +1.1031290e+02 </wgt>
<wgt id='1863'> +1.1049922e+02 </wgt>
<wgt id='1864'> +1.1074029e+02 </wgt>
<wgt id='1865'> +1.1069099e+02 </wgt>
<wgt id='1866'> +1.1064891e+02 </wgt>
<wgt id='1867'> +1.1019523e+02 </wgt>
<wgt id='1868'> +1.1098509e+02 </wgt>
<wgt id='1869'> +1.1110700e+02 </wgt>
<wgt id='1870'> +1.1062301e+02 </wgt>
<wgt id='1871'> +1.1130805e+02 </wgt>
<wgt id='1872'> +1.1084759e+02 </wgt>
<wgt id='1873'> +1.1048129e+02 </wgt>
<wgt id='1874'> +1.1096303e+02 </wgt>
<wgt id='1875'> +1.1066379e+02 </wgt>
<wgt id='1876'> +1.1069835e+02 </wgt>
<wgt id='1877'> +1.1073640e+02 </wgt>
<wgt id='1878'> +1.1103369e+02 </wgt>
<wgt id='1879'> +1.1058304e+02 </wgt>
<wgt id='1880'> +1.1044422e+02 </wgt>
<wgt id='1881'> +1.1050213e+02 </wgt>
<wgt id='1882'> +1.1097900e+02 </wgt>
<wgt id='1883'> +1.1060910e+02 </wgt>
<wgt id='1884'> +1.1110441e+02 </wgt>
<wgt id='1885'> +1.1094277e+02 </wgt>
<wgt id='1886'> +1.1043749e+02 </wgt>
<wgt id='1887'> +1.1082868e+02 </wgt>
<wgt id='1888'> +1.1064399e+02 </wgt>
<wgt id='1889'> +1.1078346e+02 </wgt>
<wgt id='1890'> +1.1076587e+02 </wgt>
<wgt id='1891'> +1.1073694e+02 </wgt>
<wgt id='1892'> +1.1095512e+02 </wgt>
<wgt id='1893'> +1.1085472e+02 </wgt>
<wgt id='1894'> +1.1080685e+02 </wgt>
<wgt id='1895'> +1.1085414e+02 </wgt>
<wgt id='1896'> +1.1084716e+02 </wgt>
<wgt id='1897'> +1.1077220e+02 </wgt>
<wgt id='1898'> +1.1081334e+02 </wgt>
<wgt id='1899'> +1.1064572e+02 </wgt>
<wgt id='1900'> +1.1080770e+02 </wgt>
<wgt id='1901'> +1.1086903e+02 </wgt>
<wgt id='1902'> +1.1082864e+02 </wgt>
<wgt id='1903'> +1.1081825e+02 </wgt>
<wgt id='1904'> +1.1082194e+02 </wgt>
<wgt id='1905'> +1.1072414e+02 </wgt>
<wgt id='1906'> +1.1074813e+02 </wgt>
<wgt id='1907'> +1.1071120e+02 </wgt>
<wgt id='1908'> +1.1069704e+02 </wgt>
<wgt id='1909'> +1.1070528e+02 </wgt>
<wgt id='1910'> +1.1070514e+02 </wgt>
<wgt id='1911'> +1.1076876e+02 </wgt>
<wgt id='1912'> +1.1070968e+02 </wgt>
<wgt id='1913'> +1.1075969e+02 </wgt>
<wgt id='1914'> +1.1071600e+02 </wgt>
<wgt id='1915'> +1.1076312e+02 </wgt>
<wgt id='1916'> +1.1073647e+02 </wgt>
<wgt id='1917'> +1.1077754e+02 </wgt>
<wgt id='1918'> +1.1078904e+02 </wgt>
<wgt id='1919'> +1.1076533e+02 </wgt>
<wgt id='1920'> +1.1069472e+02 </wgt>
<wgt id='1921'> +1.1079825e+02 </wgt>
<wgt id='1922'> +1.0866128e+02 </wgt>
<wgt id='1923'> +1.1265147e+02 </wgt>
<wgt id='1924'> +1.1084633e+02 </wgt>
<wgt id='1925'> +1.1157756e+02 </wgt>
<wgt id='1926'> +1.0841381e+02 </wgt>
<wgt id='1927'> +1.1074744e+02 </wgt>
<wgt id='1928'> +1.1125432e+02 </wgt>
<wgt id='1929'> +1.1050627e+02 </wgt>
<wgt id='1930'> +1.1340422e+02 </wgt>
<wgt id='1931'> +1.1085756e+02 </wgt>
<wgt id='1932'> +1.1088444e+02 </wgt>
<wgt id='1933'> +1.1107583e+02 </wgt>
<wgt id='1934'> +1.1101372e+02 </wgt>
<wgt id='1935'> +1.1060715e+02 </wgt>
<wgt id='1936'> +1.1086586e+02 </wgt>
<wgt id='1937'> +1.1061854e+02 </wgt>
<wgt id='1938'> +1.1007319e+02 </wgt>
<wgt id='1939'> +1.1068237e+02 </wgt>
<wgt id='1940'> +1.1104161e+02 </wgt>
<wgt id='1941'> +1.1026215e+02 </wgt>
<wgt id='1942'> +1.1060594e+02 </wgt>
<wgt id='1943'> +1.1116649e+02 </wgt>
<wgt id='1944'> +1.1312094e+02 </wgt>
<wgt id='1945'> +1.1074862e+02 </wgt>
<wgt id='1946'> +1.1079152e+02 </wgt>
<wgt id='1947'> +1.1086668e+02 </wgt>
<wgt id='1948'> +1.1083803e+02 </wgt>
<wgt id='1949'> +1.1071686e+02 </wgt>
<wgt id='1950'> +1.0988249e+02 </wgt>
<wgt id='1951'> +1.1057845e+02 </wgt>
<wgt id='1952'> +1.1113568e+02 </wgt>
<wgt id='1953'> +1.1080123e+02 </wgt>
<wgt id='1954'> +1.1084054e+02 </wgt>
<wgt id='1955'> +1.0852479e+02 </wgt>
<wgt id='1956'> +1.1259404e+02 </wgt>
<wgt id='1957'> +1.1077316e+02 </wgt>
<wgt id='1958'> +1.1142161e+02 </wgt>
<wgt id='1959'> +1.1272655e+02 </wgt>
<wgt id='1960'> +1.1062070e+02 </wgt>
<wgt id='1961'> +1.1070650e+02 </wgt>
<wgt id='1962'> +1.1001902e+02 </wgt>
<wgt id='1963'> +1.1071359e+02 </wgt>
<wgt id='1964'> +1.1050799e+02 </wgt>
<wgt id='1965'> +1.1115587e+02 </wgt>
<wgt id='1966'> +1.0895698e+02 </wgt>
<wgt id='1967'> +1.1060447e+02 </wgt>
<wgt id='1968'> +1.1394393e+02 </wgt>
<wgt id='1969'> +1.1083828e+02 </wgt>
<wgt id='1970'> +1.1093571e+02 </wgt>
<wgt id='1971'> +1.1075675e+02 </wgt>
<wgt id='1972'> +1.1091289e+02 </wgt>
<wgt id='1973'> +1.1083321e+02 </wgt>
<wgt id='1974'> +1.1021360e+02 </wgt>
<wgt id='1975'> +1.1076963e+02 </wgt>
<wgt id='1976'> +1.1103927e+02 </wgt>
<wgt id='1977'> +1.1068672e+02 </wgt>
<wgt id='1978'> +1.0917269e+02 </wgt>
<wgt id='1979'> +1.1093071e+02 </wgt>
<wgt id='1980'> +1.1074489e+02 </wgt>
<wgt id='1981'> +1.1069469e+02 </wgt>
<wgt id='1982'> +1.1074160e+02 </wgt>
<wgt id='1983'> +1.1027963e+02 </wgt>
<wgt id='1984'> +1.1091977e+02 </wgt>
<wgt id='1985'> +1.1028258e+02 </wgt>
<wgt id='1986'> +1.1102493e+02 </wgt>
<wgt id='1987'> +1.1058830e+02 </wgt>
<wgt id='1988'> +1.0866128e+02 </wgt>
<wgt id='1989'> +1.1265147e+02 </wgt>
<wgt id='1990'> +9.7406965e+01 </wgt>
<wgt id='1991'> +9.7584970e+01 </wgt>
<wgt id='1992'> +9.7229797e+01 </wgt>
<wgt id='1993'> +9.7146582e+01 </wgt>
<wgt id='1994'> +9.7667481e+01 </wgt>
<wgt id='1995'> +9.7524295e+01 </wgt>
<wgt id='1996'> +9.7289854e+01 </wgt>
<wgt id='1997'> +9.6984285e+01 </wgt>
<wgt id='1998'> +9.7821806e+01 </wgt>
<wgt id='1999'> +9.6183732e+01 </wgt>
<wgt id='2000'> +9.8590375e+01 </wgt>
<wgt id='2001'> +9.8210018e+01 </wgt>
<wgt id='2002'> +9.6625490e+01 </wgt>
<wgt id='2003'> +9.7697909e+01 </wgt>
<wgt id='2004'> +9.7115602e+01 </wgt>
<wgt id='2005'> +9.7670908e+01 </wgt>
<wgt id='2006'> +9.7053310e+01 </wgt>
<wgt id='2007'> +9.7299858e+01 </wgt>
<wgt id='2008'> +9.7560225e+01 </wgt>
<wgt id='2009'> +9.5615601e+01 </wgt>
<wgt id='2010'> +9.9077498e+01 </wgt>
<wgt id='2011'> +9.4758707e+01 </wgt>
<wgt id='2012'> +1.0006685e+02 </wgt>
<wgt id='2013'> +9.6577412e+01 </wgt>
<wgt id='2014'> +9.8271201e+01 </wgt>
<wgt id='2015'> +9.8894130e+01 </wgt>
<wgt id='2016'> +9.5930756e+01 </wgt>
<wgt id='2017'> +9.7415807e+01 </wgt>
<wgt id='2018'> +9.7444974e+01 </wgt>
<wgt id='2019'> +9.7406965e+01 </wgt>
<wgt id='2020'> +1.0344892e+02 </wgt>
<wgt id='2021'> +9.1223214e+01 </wgt>
<wgt id='2022'> +1.1634274e+02 </wgt>
<wgt id='2023'> +1.1156539e+02 </wgt>
<wgt id='2024'> +9.8333763e+01 </wgt>
<wgt id='2025'> +9.7580618e+01 </wgt>
<wgt id='2026'> +9.7554939e+01 </wgt>
<wgt id='2027'> +9.7258957e+01 </wgt>
<wgt id='2028'> +9.7089103e+01 </wgt>
<wgt id='2029'> +9.7655189e+01 </wgt>
<wgt id='2030'> +9.6413224e+01 </wgt>
<wgt id='2031'> +9.8351726e+01 </wgt>
<wgt id='2032'> +9.9033913e+01 </wgt>
<wgt id='2033'> +1.0463101e+02 </wgt>
<wgt id='2034'> +1.0474114e+02 </wgt>
<wgt id='2035'> +1.0447018e+02 </wgt>
<wgt id='2036'> +1.0434615e+02 </wgt>
<wgt id='2037'> +1.0486505e+02 </wgt>
<wgt id='2038'> +1.0461361e+02 </wgt>
<wgt id='2039'> +1.0459718e+02 </wgt>
<wgt id='2040'> +1.0407576e+02 </wgt>
<wgt id='2041'> +1.0512580e+02 </wgt>
<wgt id='2042'> +1.0452131e+02 </wgt>
<wgt id='2043'> +1.0468809e+02 </wgt>
<wgt id='2044'> +1.0316307e+02 </wgt>
<wgt id='2045'> +1.0601261e+02 </wgt>
<wgt id='2046'> +1.0492542e+02 </wgt>
<wgt id='2047'> +1.0427866e+02 </wgt>
<wgt id='2048'> +1.0445763e+02 </wgt>
<wgt id='2049'> +1.0463425e+02 </wgt>
<wgt id='2050'> +1.0429488e+02 </wgt>
<wgt id='2051'> +1.0490414e+02 </wgt>
<wgt id='2052'> +1.0231308e+02 </wgt>
<wgt id='2053'> +1.0682658e+02 </wgt>
<wgt id='2054'> +1.0563468e+02 </wgt>
<wgt id='2055'> +1.0356576e+02 </wgt>
<wgt id='2056'> +1.0698925e+02 </wgt>
<wgt id='2057'> +1.0239327e+02 </wgt>
<wgt id='2058'> +1.0662912e+02 </wgt>
<wgt id='2059'> +1.0309558e+02 </wgt>
<wgt id='2060'> +1.0540244e+02 </wgt>
<wgt id='2061'> +1.0406198e+02 </wgt>
<wgt id='2062'> +1.0459043e+02 </wgt>
<wgt id='2063'> +1.1086431e+02 </wgt>
<wgt id='2064'> +9.7581252e+01 </wgt>
<wgt id='2065'> +1.2117164e+02 </wgt>
<wgt id='2066'> +1.1381453e+02 </wgt>
<wgt id='2067'> +1.1213257e+02 </wgt>
<wgt id='2068'> +1.0118767e+02 </wgt>
<wgt id='2069'> +1.0461937e+02 </wgt>
<wgt id='2070'> +1.0407225e+02 </wgt>
<wgt id='2071'> +1.0265124e+02 </wgt>
<wgt id='2072'> +1.1090769e+02 </wgt>
<wgt id='2073'> +1.0277848e+02 </wgt>
<wgt id='2074'> +1.0386456e+02 </wgt>
<wgt id='2075'> +1.0013768e+02 </wgt>
<wgt id='2076'> +1.0945157e+02 </wgt>
<wgt id='2077'> +1.0940308e+02 </wgt>
<wgt id='2078'> +1.0935510e+02 </wgt>
<wgt id='2079'> +1.0930714e+02 </wgt>
<wgt id='2080'> +1.0925873e+02 </wgt>
<wgt id='2081'> +1.0921080e+02 </wgt>
<wgt id='2082'> +1.0916197e+02 </wgt>
<wgt id='2083'> +1.0911362e+02 </wgt>
<wgt id='2084'> +1.0906564e+02 </wgt>
<wgt id='2085'> +1.0901728e+02 </wgt>
<wgt id='2086'> +1.0896934e+02 </wgt>
<wgt id='2087'> +1.0892145e+02 </wgt>
<wgt id='2088'> +1.0887217e+02 </wgt>
<wgt id='2089'> +1.0882429e+02 </wgt>
<wgt id='2090'> +1.0877640e+02 </wgt>
<wgt id='2091'> +1.0872808e+02 </wgt>
<wgt id='2092'> +1.0868018e+02 </wgt>
<wgt id='2093'> +1.0863232e+02 </wgt>
<wgt id='2094'> +1.0858310e+02 </wgt>
<wgt id='2095'> +1.0853527e+02 </wgt>
<wgt id='2096'> +1.0848699e+02 </wgt>
<wgt id='2097'> +1.0843911e+02 </wgt>
<wgt id='2098'> +1.0839132e+02 </wgt>
<wgt id='2099'> +1.0834308e+02 </wgt>
<wgt id='2100'> +1.0829435e+02 </wgt>
<wgt id='2101'> +1.0824659e+02 </wgt>
<wgt id='2102'> +1.0819840e+02 </wgt>
<wgt id='2103'> +1.0815061e+02 </wgt>
<wgt id='2104'> +1.0810243e+02 </wgt>
<wgt id='2105'> +1.0805464e+02 </wgt>
<wgt id='2106'> +1.0800593e+02 </wgt>
<wgt id='2107'> +1.1033365e+02 </wgt>
<wgt id='2108'> +1.1035732e+02 </wgt>
<wgt id='2109'> +1.1041240e+02 </wgt>
<wgt id='2110'> +1.1008022e+02 </wgt>
<wgt id='2111'> +1.1087176e+02 </wgt>
<wgt id='2112'> +1.1071795e+02 </wgt>
<wgt id='2113'> +1.1046568e+02 </wgt>
<wgt id='2114'> +1.1067626e+02 </wgt>
<wgt id='2115'> +1.1036656e+02 </wgt>
<wgt id='2116'> +1.1014176e+02 </wgt>
<wgt id='2117'> +1.0981722e+02 </wgt>
<wgt id='2118'> +1.1125691e+02 </wgt>
<wgt id='2119'> +1.1072848e+02 </wgt>
<wgt id='2120'> +1.1019244e+02 </wgt>
<wgt id='2121'> +1.1053158e+02 </wgt>
<wgt id='2122'> +1.1201737e+02 </wgt>
<wgt id='2123'> +1.0991475e+02 </wgt>
<wgt id='2124'> +1.1021396e+02 </wgt>
<wgt id='2125'> +1.1130022e+02 </wgt>
<wgt id='2126'> +1.0889783e+02 </wgt>
<wgt id='2127'> +1.0988884e+02 </wgt>
<wgt id='2128'> +1.1093130e+02 </wgt>
<wgt id='2129'> +1.0831780e+02 </wgt>
<wgt id='2130'> +1.1082505e+02 </wgt>
<wgt id='2131'> +1.1170571e+02 </wgt>
<wgt id='2132'> +1.1006509e+02 </wgt>
<wgt id='2133'> +1.0971952e+02 </wgt>
<wgt id='2134'> +1.1071079e+02 </wgt>
<wgt id='2135'> +1.0990503e+02 </wgt>
<wgt id='2136'> +1.0922865e+02 </wgt>
<wgt id='2137'> +1.1000622e+02 </wgt>
<wgt id='2138'> +1.0968265e+02 </wgt>
<wgt id='2139'> +1.1048420e+02 </wgt>
<wgt id='2140'> +1.0903209e+02 </wgt>
<wgt id='2141'> +1.0941178e+02 </wgt>
<wgt id='2142'> +1.1085314e+02 </wgt>
<wgt id='2143'> +1.1017980e+02 </wgt>
<wgt id='2144'> +1.1089712e+02 </wgt>
<wgt id='2145'> +1.1050308e+02 </wgt>
<wgt id='2146'> +1.1029011e+02 </wgt>
<wgt id='2147'> +1.0972409e+02 </wgt>
<wgt id='2148'> +1.0986974e+02 </wgt>
<wgt id='2149'> +1.1005774e+02 </wgt>
<wgt id='2150'> +1.1031131e+02 </wgt>
<wgt id='2151'> +1.1024962e+02 </wgt>
<wgt id='2152'> +1.1020659e+02 </wgt>
<wgt id='2153'> +1.0976444e+02 </wgt>
<wgt id='2154'> +1.1053937e+02 </wgt>
<wgt id='2155'> +1.1067018e+02 </wgt>
<wgt id='2156'> +1.1018255e+02 </wgt>
<wgt id='2157'> +1.1086901e+02 </wgt>
<wgt id='2158'> +1.1040670e+02 </wgt>
<wgt id='2159'> +1.1004220e+02 </wgt>
<wgt id='2160'> +1.1052314e+02 </wgt>
<wgt id='2161'> +1.1022791e+02 </wgt>
<wgt id='2162'> +1.1026126e+02 </wgt>
<wgt id='2163'> +1.1029086e+02 </wgt>
<wgt id='2164'> +1.1059312e+02 </wgt>
<wgt id='2165'> +1.1014954e+02 </wgt>
<wgt id='2166'> +1.1000964e+02 </wgt>
<wgt id='2167'> +1.1006677e+02 </wgt>
<wgt id='2168'> +1.1054005e+02 </wgt>
<wgt id='2169'> +1.1016953e+02 </wgt>
<wgt id='2170'> +1.1066246e+02 </wgt>
<wgt id='2171'> +1.1050396e+02 </wgt>
<wgt id='2172'> +1.0999732e+02 </wgt>
<wgt id='2173'> +1.1038892e+02 </wgt>
<wgt id='2174'> +1.1020150e+02 </wgt>
<wgt id='2175'> +1.1034416e+02 </wgt>
<wgt id='2176'> +1.1032334e+02 </wgt>
<wgt id='2177'> +1.1029645e+02 </wgt>
<wgt id='2178'> +1.1051635e+02 </wgt>
<wgt id='2179'> +1.1041302e+02 </wgt>
<wgt id='2180'> +1.1036434e+02 </wgt>
<wgt id='2181'> +1.1041359e+02 </wgt>
<wgt id='2182'> +1.1040790e+02 </wgt>
<wgt id='2183'> +1.1033658e+02 </wgt>
<wgt id='2184'> +1.1037448e+02 </wgt>
<wgt id='2185'> +1.1021014e+02 </wgt>
<wgt id='2186'> +1.1036794e+02 </wgt>
<wgt id='2187'> +1.1042515e+02 </wgt>
<wgt id='2188'> +1.1039238e+02 </wgt>
<wgt id='2189'> +1.1037984e+02 </wgt>
<wgt id='2190'> +1.1038157e+02 </wgt>
<wgt id='2191'> +1.1028337e+02 </wgt>
<wgt id='2192'> +1.1031078e+02 </wgt>
<wgt id='2193'> +1.1027603e+02 </wgt>
<wgt id='2194'> +1.1025621e+02 </wgt>
<wgt id='2195'> +1.1026502e+02 </wgt>
<wgt id='2196'> +1.1026287e+02 </wgt>
<wgt id='2197'> +1.1032848e+02 </wgt>
<wgt id='2198'> +1.1026889e+02 </wgt>
<wgt id='2199'> +1.1031807e+02 </wgt>
<wgt id='2200'> +1.1027771e+02 </wgt>
<wgt id='2201'> +1.1032050e+02 </wgt>
<wgt id='2202'> +1.1029699e+02 </wgt>
<wgt id='2203'> +1.1033925e+02 </wgt>
<wgt id='2204'> +1.1034985e+02 </wgt>
<wgt id='2205'> +1.1032551e+02 </wgt>
<wgt id='2206'> +1.1025663e+02 </wgt>
<wgt id='2207'> +1.1035999e+02 </wgt>
<wgt id='2208'> +1.1033345e+02 </wgt>
<wgt id='2209'> +1.1033240e+02 </wgt>
<wgt id='2210'> +1.1033385e+02 </wgt>
<wgt id='2211'> +1.1033388e+02 </wgt>
<wgt id='2212'> +1.1033422e+02 </wgt>
<wgt id='2213'> +1.1033373e+02 </wgt>
<wgt id='2214'> +1.1033282e+02 </wgt>
<wgt id='2215'> +1.1182143e+02 </wgt>
<wgt id='2216'> +1.0631788e+02 </wgt>
<wgt id='2217'> +1.1200654e+02 </wgt>
<wgt id='2218'> +1.1171943e+02 </wgt>
<wgt id='2219'> +1.1609659e+02 </wgt>
<wgt id='2220'> +1.1118221e+02 </wgt>
<wgt id='2221'> +1.0671691e+02 </wgt>
<wgt id='2222'> +1.1233813e+02 </wgt>
<wgt id='2223'> +1.1511466e+02 </wgt>
<wgt id='2224'> +1.1345616e+02 </wgt>
<wgt id='2225'> +1.1537602e+02 </wgt>
<wgt id='2226'> +1.1023429e+02 </wgt>
<wgt id='2227'> +1.1121629e+02 </wgt>
<wgt id='2228'> +1.0892340e+02 </wgt>
<wgt id='2229'> +1.1170782e+02 </wgt>
<wgt id='2230'> +1.1065927e+02 </wgt>
<wgt id='2231'> +1.1648936e+02 </wgt>
<wgt id='2232'> +1.0625119e+02 </wgt>
<wgt id='2233'> +1.0273100e+02 </wgt>
<wgt id='2234'> +1.1146028e+02 </wgt>
<wgt id='2235'> +1.2149354e+02 </wgt>
<wgt id='2236'> +1.1520066e+02 </wgt>
<wgt id='2237'> +1.1466527e+02 </wgt>
<wgt id='2238'> +1.1578800e+02 </wgt>
<wgt id='2239'> +1.1532468e+02 </wgt>
<wgt id='2240'> +1.1185593e+02 </wgt>
<wgt id='2241'> +1.1104156e+02 </wgt>
<wgt id='2242'> +1.0872561e+02 </wgt>
<wgt id='2243'> +1.1022131e+02 </wgt>
<wgt id='2244'> +1.1061721e+02 </wgt>
<wgt id='2245'> +1.1308545e+02 </wgt>
<wgt id='2246'> +1.1686862e+02 </wgt>
<wgt id='2247'> +1.1605916e+02 </wgt>
<wgt id='2248'> +1.1538429e+02 </wgt>
<wgt id='2249'> +1.1291821e+02 </wgt>
<wgt id='2250'> +1.1653866e+02 </wgt>
<wgt id='2251'> +1.1217342e+02 </wgt>
<wgt id='2252'> +1.0857694e+02 </wgt>
<wgt id='2253'> +1.1300947e+02 </wgt>
<wgt id='2254'> +1.0727698e+02 </wgt>
<wgt id='2255'> +1.1391081e+02 </wgt>
<wgt id='2256'> +1.1001018e+02 </wgt>
<wgt id='2257'> +1.1106840e+02 </wgt>
<wgt id='2258'> +1.1283375e+02 </wgt>
<wgt id='2259'> +1.1141746e+02 </wgt>
<wgt id='2260'> +1.1270409e+02 </wgt>
<wgt id='2261'> +1.0599720e+02 </wgt>
<wgt id='2262'> +1.1139300e+02 </wgt>
<wgt id='2263'> +1.1111789e+02 </wgt>
<wgt id='2264'> +1.1372993e+02 </wgt>
<wgt id='2265'> +1.1243137e+02 </wgt>
<wgt id='2266'> +1.1184403e+02 </wgt>
<wgt id='2267'> +1.1258717e+02 </wgt>
<wgt id='2268'> +1.1386681e+02 </wgt>
<wgt id='2269'> +1.1204945e+02 </wgt>
<wgt id='2270'> +1.1340569e+02 </wgt>
<wgt id='2271'> +1.0343042e+02 </wgt>
<wgt id='2272'> +1.0579821e+02 </wgt>
<wgt id='2273'> +1.0979094e+02 </wgt>
<wgt id='2274'> +1.1232239e+02 </wgt>
<wgt id='2275'> +1.1548148e+02 </wgt>
<wgt id='2276'> +1.0694030e+02 </wgt>
<wgt id='2277'> +1.1130878e+02 </wgt>
<wgt id='2278'> +1.0965338e+02 </wgt>
<wgt id='2279'> +9.9899846e+01 </wgt>
<wgt id='2280'> +1.1657914e+02 </wgt>
<wgt id='2281'> +1.1131036e+02 </wgt>
<wgt id='2282'> +1.1896111e+02 </wgt>
<wgt id='2283'> +1.0941943e+02 </wgt>
<wgt id='2284'> +1.1502489e+02 </wgt>
<wgt id='2285'> +1.1529599e+02 </wgt>
<wgt id='2286'> +1.1135087e+02 </wgt>
<wgt id='2287'> +1.1319799e+02 </wgt>
<wgt id='2288'> +1.1202994e+02 </wgt>
<wgt id='2289'> +1.1442160e+02 </wgt>
<wgt id='2290'> +1.0937953e+02 </wgt>
<wgt id='2291'> +1.1980796e+02 </wgt>
<wgt id='2292'> +1.1121524e+02 </wgt>
<wgt id='2293'> +1.1306277e+02 </wgt>
<wgt id='2294'> +1.1171229e+02 </wgt>
<wgt id='2295'> +1.1582048e+02 </wgt>
<wgt id='2296'> +1.1522824e+02 </wgt>
<wgt id='2297'> +1.1602988e+02 </wgt>
<wgt id='2298'> +1.0930244e+02 </wgt>
<wgt id='2299'> +1.1226269e+02 </wgt>
<wgt id='2300'> +1.1078612e+02 </wgt>
<wgt id='2301'> +1.1055704e+02 </wgt>
<wgt id='2302'> +1.1285639e+02 </wgt>
<wgt id='2303'> +1.0776452e+02 </wgt>
<wgt id='2304'> +1.0811526e+02 </wgt>
<wgt id='2305'> +1.1411196e+02 </wgt>
<wgt id='2306'> +1.1365827e+02 </wgt>
<wgt id='2307'> +1.1960247e+02 </wgt>
<wgt id='2308'> +1.1024029e+02 </wgt>
<wgt id='2309'> +1.1162120e+02 </wgt>
<wgt id='2310'> +1.0145616e+02 </wgt>
<wgt id='2311'> +1.1260009e+02 </wgt>
<wgt id='2312'> +1.1177462e+02 </wgt>
<wgt id='2313'> +1.1251709e+02 </wgt>
<wgt id='2314'> +1.1064487e+02 </wgt>
<wgt id='2315'> +1.0155842e+02 </wgt>
<wgt id='2316'> +1.1056749e+02 </wgt>
<wgt id='2317'> +1.1277665e+02 </wgt>
<wgt id='2318'> +1.1134447e+02 </wgt>
<wgt id='2319'> +1.2829696e+02 </wgt>
<wgt id='2320'> +1.4418520e+02 </wgt>
<wgt id='2321'> +1.0867786e+02 </wgt>
<wgt id='2322'> +1.3110571e+02 </wgt>
</rwgt>
</event>
</LesHouchesEvents>
